Formula,Material ID,Experimental Band Gap (eV),Band Gap (eV),Formation Energy (eV/atom)
NaI,mp-23268,5.8,3.5686999999999998,-1.475365545689655
P2Os,mp-2319,1.13,0.8902999999999999,-0.6073711853174615
CdSiP2,mp-4666,1.8,1.4257,-0.27258217898809356
Na2In4SSe6,N/A,1.92,N/A,N/A
AlCuSe2,mp-8016,2.7,0.8921999999999999,-0.7563341932812495
Cu3YbS3,N/A,1.56,N/A,N/A
RbSbTe2,N/A,0.38,N/A,N/A
BiP3(PbO4)3,mp-1227709,3.7,3.6994,-2.3599192136278178
Ce8Sb2S15,N/A,1.99,N/A,N/A
BaCaB2O5,mp-1019542,5.6,4.4673,-3.2045876664814816
ZnSb,mp-753,1.11,0.028200000000000003,-0.06144775499999966
K2VAgS4,mp-8900,1.85,1.3049999999999997,-1.1888517170208233
BaCuSbSe3,N/A,1.6,N/A,N/A
GaHSeO4,mp-1194398,5.51,4.1423000000000005,-1.3377326946875
GaSe,mp-568263,2.15,1.2121,-0.6900187082812508
Ga0.75As0.75Zn0.25Se0.25,N/A,1.51,N/A,N/A
ZnS,mp-554820,3.73,2.0195,-0.9622174221205354
RbBiSe2,N/A,0.92,N/A,N/A
GeSe2,mp-540625,2.38,1.4381000000000002,-0.5793224153125003
Cu0.4Ga1.6S2.6,N/A,2.45,N/A,N/A
ZnTe,mp-2176,2.37,1.0732999999999997,-0.6841630333333328
ZnTe,mp-2176,2.34,1.0732999999999997,-0.6841630333333328
Cs3Nb9(TeO8)4,mp-1201443,3.22,1.4336000000000002,-2.6170997758465036
Cd5Ga2S2Te6,N/A,1.29,N/A,N/A
AgSbS2,mp-3922,1.9,1.3716000000000004,-0.24963047140624894
In0.01P0.01Ga0.99As0.99,N/A,1.43,N/A,N/A
CuBiSeO,mp-23116,0.82,0.3006000000000002,-0.9621718162109376
Cu4Sn7S16,mp-675137,0.8,0.0,-0.4309532224074078
ZnTe,mp-2176,2.2,1.0732999999999997,-0.6841630333333328
Ce1.3Lu0.7S3,N/A,1.25,N/A,N/A
InP,mp-20351,1.35,0.4546000000000001,-0.3582735989880952
LiGaS2,mp-3647,3.76,2.9608,-1.187989849322916
Ag2.7Ba6Sn4.3S16,N/A,1.58,N/A,N/A
Sm2YbCuS5,N/A,1.28,N/A,N/A
Pb0.85Sn0.15Se,N/A,0.13,N/A,N/A
K2Hg3(GeS4)2,mp-17792,2.64,1.5520999999999998,-0.7931307788000026
CsSc(SeO3)2,mp-1194629,5.2,4.1332,-2.166027430184267
CdTe,mp-406,1.44,0.5846000000000002,-0.5607400050000031
GaN,mp-804,3.21,1.7264999999999997,-0.670049406875
La2HfS5,mp-1197947,0.7,1.1290000000000004,-2.2748515233203115
PbSe,mp-2201,0.22,0.42569999999999997,-0.6725727545312452
Ba2B4O9H2,N/A,5.12,N/A,N/A
ZrSe3,mp-1683,1.6,0.39790000000000036,-1.2367712330468734
Cu2Se,mp-1097707,1.5,0.051899999999999835,-0.07560757614583243
Cd(GaSe2)2,mp-3772,2.75,1.3487,-0.8853534391964288
InN,mp-22205,2.4,0.0,-0.11770066687499892
AgAsS2,mp-13740,2.26,1.4968,-0.157004482656248
SnS0.01Se0.99,N/A,0.89,N/A,N/A
Mg3Sb2,mp-1196139,0.8,1.3212000000000002,-0.4281313392499996
ZrC,mp-2795,0.6,0.0,-0.8040375187500004
NaI,mp-23268,6.75,3.5686999999999998,-1.475365545689655
CdSnP2,mp-5213,1.17,0.26949999999999985,-0.08489588232142742
PtS,mp-288,0.64,0.38480000000000025,-0.5329758164062461
TaGaS2,N/A,2.45,N/A,N/A
CsBiS2,mp-541378,1.39,1.5773,-0.994317064913794
ZnSe,mp-1190,2.69,1.1663,-0.9515610311718761
Sr2ScSbO6,mp-1106218,3.57,3.5074,-3.111191022499999
Cd(GaS2)2,mp-4452,3.44,2.1205,-0.8252262901785709
KBiSe2,mp-36539,0.67,0.8130999999999999,-0.9184257667343747
HgTe,mp-2730,0.18,0.0,-0.19013660875000227
La3Mo4O16F,mp-1198818,3.7,3.6136,-2.7488812128125013
TlN3,mp-870,3.58,1.7584,0.31055484468750194
Sb2Se3,mp-2160,1.13,0.7564000000000002,-0.2844945879375018
VO2,mp-541404,0.4,0.21220000000000017,-2.5195996983333337
Cs2Th(PS3)3,mp-640389,2.8,2.2752999999999997,-1.227059665382593
Mg2Si,mp-1367,2.27,0.21799999999999997,-0.10859876333333318
CsSbTe2,N/A,0.43,N/A,N/A
Ga0.6In0.4As,N/A,0.81,N/A,N/A
In0.99As0.99Cd0.01Te0.01,N/A,0.76,N/A,N/A
Ga0.5In0.5As,N/A,0.75,N/A,N/A
PbSe,mp-2201,0.29,0.42569999999999997,-0.6725727545312452
RbBi3Se5,mp-1209327,0.48,0.984,-0.8503077571354167
TbIn3S6,N/A,1.2,N/A,N/A
CoPbO3,mp-1178420,0.28,0.0,-1.2777146489999986
KSbSe2,mp-9576,1.72,1.1298000000000001,-0.8151912723437498
RbH2(IO3)3,mp-1192404,4.07,3.5082999999999993,-1.0812797528333344
EuN,mp-20340,1.25,0.0,-1.0494057468749993
AlCuTe2,mp-8017,2.06,1.0186000000000002,-0.42519420625000137
Bi2Te0.3Se2.7,N/A,0.24,N/A,N/A
La2Se3,mp-32798,1.97,1.5389999999999997,-2.3422950321874993
Tl3VS4,mp-5513,1.7,1.9554,-0.8552032675000003
Na2Ti3O7,mp-3488,3.51,2.7103,-3.1576711212715503
Pb0.995TeIn0.005,N/A,0.43,N/A,N/A
CdSe,mp-1070,1.85,0.5724,-0.8376061936718759
In0.9As0.9Ga0.1P0.1,N/A,0.45,N/A,N/A
RbCaBO3,N/A,3.67,N/A,N/A
InCuS2,mp-22736,1.57,0.0,-0.6243807539062498
ZnO,mp-2133,3.2,0.7227,-1.647445170000001
Cu0.5Ga1.5Se2.5,N/A,1.76,N/A,N/A
KGaSe2,N/A,2.6,N/A,N/A
KIO3,mp-1200675,3.83,2.8533,-1.3732115182000002
Ga0.9Sb0.9Zn0.1Te0.1,N/A,1.0,N/A,N/A
Te2Pd,mp-782,1.8,0.0,-0.34445980000000515
Zn3(BO3)2,mp-557683,2.6,2.7833,-2.107651561515151
GaCuSe2,mp-4840,1.71,0.03980000000000006,-0.5736508945312497
RbNb3(TeO6)2,mp-1201687,3.49,2.4032999999999998,-2.493609054074074
Tl2S,mp-667,1.0,0.5885999999999996,-0.5102223477083335
ZnS,mp-554820,3.68,2.0195,-0.9622174221205354
CdAs2,mp-471,1.0,0.13319999999999999,-0.06123098999999973
LiGaSe2,mp-11582,3.57,2.0656,-1.0635712093229177
CdSe,mp-1070,1.86,0.5724,-0.8376061936718759
GaTc,mp-867841,1.42,0.0,-0.09147015499999966
Cd(InS2)2,mp-559200,2.7,1.0503999999999998,-0.7870932551785715
AlSb,mp-2624,1.52,1.2255000000000003,-0.25297548500000033
Pb0.85Sn0.15Te,N/A,0.15,N/A,N/A
Pb0.77Sn0.23Te,N/A,0.04,N/A,N/A
CdSiP2,mp-4666,2.2,1.4257,-0.27258217898809356
K2Se,mp-8426,1.8,2.0925000000000002,-1.2941353355208325
SbSI,mp-23041,1.93,1.6276000000000002,-0.6224157683333296
In6Se7,mp-1192955,0.34,0.46080000000000076,-0.6397181044951922
Sb2Se3,mp-2160,1.15,0.7564000000000002,-0.2844945879375018
GaAs0.8P0.2,N/A,1.62,N/A,N/A
Bi24BO39,N/A,2.91,N/A,N/A
MgCu2GeS4,mp-2222834,2.36,0.6525000000000007,-0.8438812574999996
BaGa2GeS6,mp-1227983,3.26,2.7662999999999998,-1.2250079314999993
K10Co4Sn4S17,N/A,1.31,N/A,N/A
PbS,mp-21276,0.31,0.46669999999999945,-0.7835693762499978
K2.15Pb1.7Sb8.15Se15,N/A,0.6,N/A,N/A
Hg6.5As4CdCl6,N/A,2.05,N/A,N/A
PbS,mp-21276,0.38,0.46669999999999945,-0.7835693762499978
CdS,mp-672,2.66,1.125,-0.776127461406249
CsAsSe2,mp-581864,2.0,1.6394,-0.8637724010856838
TlCr5S5Se3,N/A,0.89,N/A,N/A
AgSbTe2,mp-12360,0.48,0.0,-0.29143718124999873
NaIn(TeO3)2,mp-1194878,4.0,2.9873000000000003,-1.7427578002629303
TePb3Cl4O3,mp-1196950,3.79,3.2599,-1.5851164849242416
Na0.5Pb1.75GeS4,N/A,2.08,N/A,N/A
LiAsS2,mp-555874,1.6,1.0664000000000002,-0.7011549411979168
Cs4Ag9Sb4S12,N/A,2.0,N/A,N/A
CuGa3Se5,N/A,1.89,N/A,N/A
P2Ru,mp-1413,1.0,0.4791999999999996,-0.6742735869841283
ZnO,mp-2133,3.26,0.7227,-1.647445170000001
GaAgS2,mp-5342,2.64,0.9622000000000002,-0.6195302464062493
CaI2,mp-30031,5.98,3.8971,-1.9281754366666668
GaAs0.99P0.01,N/A,1.37,N/A,N/A
Nd2O3,mp-1045,4.4,3.708,-3.6697150564999985
GeO2,mp-470,5.54,1.2157,-1.8503387316666664
Hg0.77Cd0.23Te,N/A,0.21,N/A,N/A
RbPbPO4,N/A,4.35,N/A,N/A
Li2TeMoO6,mp-1203622,3.5,3.0987,-2.0126607358333333
CuIn3Te5,N/A,1.01,N/A,N/A
LiGd5P2O13,N/A,3.73,N/A,N/A
AgS,N/A,1.34,N/A,N/A
Li2HgSiS4,N/A,2.68,N/A,N/A
InN,mp-22205,2.21,0.0,-0.11770066687499892
CdSb,mp-1321,0.53,0.020099999999999785,-0.0958698493749992
Tb2EuSe4,mp-646337,2.0,0.19330000000000025,-2.196415628601191
As2S3,mp-1189572,2.6,1.9873,-0.15593288218749848
GaSe,mp-568263,2.07,1.2121,-0.6900187082812508
Cd(GaSe2)2,mp-3772,2.41,1.3487,-0.8853534391964288
CdSiAs2,mp-3078,1.51,0.4001999999999999,-0.10667615875000092
KCu2BiS3,mp-1194436,1.29,0.6686000000000005,-0.6973946317499998
PbSe,mp-2201,0.28,0.42569999999999997,-0.6725727545312452
Zn(InSe2)2,mp-22607,1.95,0.9929000000000001,-0.8611685975297608
InSe,mp-20485,1.29,0.4590000000000001,-0.676726512031248
In2Bi3Se7I,mp-1198248,1.38,1.1486999999999998,-0.73222274478766
SbSBr,mp-22971,2.22,1.7767,-0.8158934199999995
Pb0.99TeIn0.01,N/A,0.53,N/A,N/A
K2MnSnSe4,mp-628305,1.7,0.2896000000000001,-1.0181253567882536
IrSe2,mp-1361,0.9,0.0517000000000003,-0.4239419239583337
VFeSb,mp-567636,0.46,0.3487,-0.2752190966666663
LaGaS3,mp-4816,2.5,2.2220000000000004,-1.6841287401874998
CsBi2,mp-23163,0.55,0.0,-0.3398868615517247
SnPbS3,mp-1188095,0.9,1.0929000000000002,-0.7316311474999985
GeSe,mp-700,1.38,0.8988,-0.4517030911718738
CaTe,mp-1519,4.3,1.5535,-1.9175140150000018
Zn(InSe2)2,mp-22607,2.05,0.9929000000000001,-0.8611685975297608
RbNbSe2O7,N/A,4.1,N/A,N/A
In2HgTe4,mp-19765,1.17,0.5295000000000001,-0.40480253964285645
CdS0.55Se0.45,N/A,2.05,N/A,N/A
K2S,mp-1022,2.1,2.3201,-1.2475660384375
Zn0.99Hg0.01Se,N/A,2.6,N/A,N/A
Tl4CdI6,mp-570339,2.8,2.3902000000000005,-0.8692920798484874
Cu0.1In1.9Se2.9,N/A,1.45,N/A,N/A
TePb,mp-19717,0.33,0.8063000000000002,-0.5038298999999995
BaSe,mp-1253,3.7,1.9487999999999999,-2.283761781171875
HgBr2,mp-571558,3.59,1.6827,-0.8412294797222243
Cd3P2,mp-2441,0.53,0.0018000000000002458,-0.12317778194047549
Ga1.1Sb0.9Te0.3,N/A,0.7,N/A,N/A
Ag2O,mp-353,1.6,0.0,-0.3141996186111082
Cd3Sb2,N/A,0.3,N/A,N/A
CsTm9Cd4Se18,N/A,2.16,N/A,N/A
Bi2Te0.4Se2.6,N/A,0.7,N/A,N/A
EuTe,mp-542583,2.06,0.0,-1.9925802475000012
NaY(Te2O5)2,mp-1195227,3.9,3.0942000000000003,-2.0109410033153736
K2La2Ti3O10,mp-6548,3.05,2.0397999999999996,-3.4292274546764703
Pb0.99Ge0.01Se,N/A,0.27,N/A,N/A
TlInTe2,mp-22791,0.62,0.5400999999999998,-0.5706006233333358
Pb0.9Se0.9Ge0.1S0.1,N/A,0.32,N/A,N/A
K2Mo2Se2O11,mp-1195788,3.3,2.787,-1.8213872083345588
Zn(InS2)2,mp-674328,2.6,1.4023999999999996,-0.8054539316071408
PbBr2,mp-2456335,3.31,2.6426999999999996,-1.3493225858333322
As2S5,N/A,2.48,N/A,N/A
LaCuSeO,mp-552488,2.83,1.5380999999999991,-2.3130670999609375
NaH3(SeO3)2,mp-1220990,4.9,4.3395,-1.3827239908180669
IrSSe,N/A,1.2,N/A,N/A
GaAs,mp-2534,1.43,0.18610000000000015,-0.44627705625000047
GeS,mp-2242,1.68,1.2375999999999996,-0.50070603125
MgO,mp-1265,7.7,4.4292,-2.9992433999999992
SbSI,mp-23041,1.95,1.6276000000000002,-0.6224157683333296
ZnCu2SiTe4,mp-1078498,1.47,0.1589999999999998,-0.389040605833332
As2Os,mp-2455,0.92,0.6646999999999998,-0.30389278500000216
CdTeO3,mp-28290,3.91,3.0793,-1.5190500970833327
Pb0.85Sn0.15Te,N/A,0.23,N/A,N/A
KIO3,mp-1200675,4.02,2.8533,-1.3732115182000002
UHg4(AsCl3)2,mp-570252,1.9,0.32630000000000003,-1.1643228300961554
RhS3,N/A,1.5,N/A,N/A
Nb2AgPS10,mp-554930,1.78,1.3724999999999996,-0.8957210633078238
ZnS,mp-554820,3.56,2.0195,-0.9622174221205354
Sm3B(SO)3,mp-1105337,2.5,1.5301000000000005,-2.9299033324166657
GdScS3,mp-510490,2.1,1.1773999999999996,-2.262208397687502
In6S7,mp-555853,0.89,0.3186,-0.6851884345913478
Eu(InSe2)2,mp-1104657,1.31,0.07860000000000023,-1.2157020096726185
Cs2AgBiBr6,mp-1078250,2.19,1.3547,-1.513185841097701
Pb0.9Sn0.1Se,N/A,0.17,N/A,N/A
PbS,mp-21276,0.39,0.46669999999999945,-0.7835693762499978
LiGaTe2,mp-5048,2.31,1.5885000000000002,-0.8397108085416658
CdSiP2,mp-4666,2.4,1.4257,-0.27258217898809356
Sb2Os,mp-2695,0.21,0.34470000000000134,-0.08399437833333441
CeTaN2O,N/A,1.9,N/A,N/A
Ag3AsS3,mp-561620,2.03,1.6277999999999997,-0.1596350126339254
Ce4InSbSe9,N/A,1.69,N/A,N/A
YN,mp-2114,1.9,0.1510000000000007,-1.999617329374999
CdSnP2,mp-5213,1.16,0.26949999999999985,-0.08489588232142742
TbWClO4,mp-1103802,4.24,3.4255,-2.7541998259523797
Cd(InSe2)2,mp-22304,1.3,0.9563999999999999,-0.8343265846726184
LiAsSe2,mp-1078724,1.1,0.7504,-0.6450723543229167
RbCl,mp-23295,8.5,4.8388,-2.24487251375
ZnAs2,mp-7262,0.92,0.22409999999999997,-0.14899074958333358
CoSb2,mp-755,0.2,0.0,-0.10082353333333553
SnS0.99Se0.01,N/A,1.11,N/A,N/A
BaPd(IO3)4,mp-1106270,1.97,1.9057999999999997,-1.1689324177777765
Fe2O3,mp-19770,2.2,0.0,-1.7045097224999992
Hg0.2Zn0.8Te,N/A,1.4,N/A,N/A
Ge0.88Si0.12,N/A,0.84,N/A,N/A
GaSe,mp-568263,2.1,1.2121,-0.6900187082812508
NaSb(PS3)2,mp-554384,2.17,2.0182999999999995,-0.7241097683165016
K2Ge3(BO5)2,mp-560019,5.38,3.8682999999999996,-2.399320128107843
Bi2S3,mp-22856,1.4,1.3617999999999997,-0.6626376374999999
Pr2GeSe5,N/A,1.8,N/A,N/A
SrTiO3,mp-4651,3.4,1.8487999999999998,-3.4542551163333344
Ag3SbS3,mp-555269,2.02,1.5142000000000002,-0.206377109062497
As2S3,mp-1189572,3.0,1.9873,-0.15593288218749848
As2S3,mp-1189572,2.06,1.9873,-0.15593288218749848
Rb2VCuS4,mp-15219,1.85,1.2439,-1.2795823906249995
Rb4Mo5(PO11)2,mp-1199088,3.51,3.3712,-2.2645131889177503
Ag3SbS3,mp-555269,2.33,1.5142000000000002,-0.206377109062497
K2VCuS4,mp-15147,1.82,1.2343,-1.2638027968124992
Tb(CuSe)3,mp-1217841,0.16,1.1848,-0.935301069099702
Sm2Se3,mp-15081,2.3,0.3736999999999999,-2.1980478374374997
InAgS2,mp-19833,1.9,0.37729999999999997,-0.5591274251562499
Cs4Cu3Bi9S17,N/A,0.6,N/A,N/A
LiB3O5,mp-3660,8.0,6.3532,-2.8084417089814817
Bi2V2Se4O16,N/A,2.2,N/A,N/A
Mg2GeSe4,mp-1192564,2.02,1.4937999999999998,-1.0955876099107142
Cd(InSe2)2,mp-22304,2.0,0.9563999999999999,-0.8343265846726184
In0.99P0.99Ga0.01As0.01,N/A,1.3,N/A,N/A
CdS,mp-672,2.59,1.125,-0.776127461406249
NaBr,mp-22916,7.26,4.0895,-1.8674453799999995
CdGeAs2,mp-4953,0.65,0.008500000000000174,-0.07637719499999918
Sb2Os,mp-2695,0.2,0.34470000000000134,-0.08399437833333441
GaAs0.01Sb0.99,N/A,1.37,N/A,N/A
BiBr3,mp-2913080,2.66,2.8833,-1.2478383262500001
Ga0.99Al0.01P,N/A,2.27,N/A,N/A
CdSb,mp-1321,0.46,0.020099999999999785,-0.0958698493749992
ReSe2,mp-541582,1.15,1.1434000000000002,-0.46316581770832954
EuS,mp-20587,1.65,0.0,-2.4620848664062507
Pb2BO3Cl,N/A,3.99,N/A,N/A
Pb0.96TeIn0.04,N/A,0.37,N/A,N/A
CsInSe2,mp-1200720,2.81,1.6302,-1.1711594930648346
In0.6As0.6Ga0.4P0.4,N/A,1.25,N/A,N/A
Ga0.5As0.5Zn0.5Se0.5,N/A,1.52,N/A,N/A
CsNa2Sb,mp-1096304,0.8,9.999999999976694e-05,0.5017260141666657
TlInS2,mp-20042,2.2,0.4748000000000001,-0.7766988806250015
Zn(InTe2)2,mp-20832,1.87,0.8291,-0.6145036685714302
Ag3AsSe3,mp-662599,2.2,0.8906000000000001,-0.30236748243303524
K10Co4Sn4S17,N/A,1.8,N/A,N/A
POsS,mp-1102534,1.4,0.944,-0.5610892527628977
CuGa1.6In0.4S3.5,N/A,2.15,N/A,N/A
Cu3SmS3,N/A,1.82,N/A,N/A
ZnGeAs2,mp-4008,1.1,0.0011999999999998678,-0.15961353374999998
InSb0.01As0.99,N/A,0.17,N/A,N/A
Gd2(MoO4)3,mp-3572,4.18,3.1014,-2.6328411161764707
PbBr2,mp-2456335,3.5,2.6426999999999996,-1.3493225858333322
Ba2InBiS5,mp-864638,1.55,1.4528999999999996,-1.5252823599074068
FeBi(SeO3)3,mp-1197024,2.54,2.6249000000000002,-1.4386388853236614
CdCu2SnSe4,mp-16565,0.96,0.0,-0.5999618992968747
Li3ScN2,mp-542435,2.9,2.2440999999999995,-1.0498281918749985
InBi2Se4Br,mp-571169,1.21,1.2945000000000002,-0.7988289645052076
GeS2,mp-572892,3.54,2.2648,-0.6627211947916661
Pb0.999TeIn0.001,N/A,0.3,N/A,N/A
CuSbS2,mp-4468,1.38,0.7226999999999997,-0.30408631140625
CaO,mp-2605,7.03,3.6301000000000005,-3.2301091375000013
LiMoIO6,mp-558917,2.8,2.2334,-1.6323878609259255
Hg0.9Cd0.1Se,N/A,1.32,N/A,N/A
Pb0.8Ge0.2Se,N/A,0.35,N/A,N/A
TlSbS2,mp-28230,1.42,0.0,-0.5847535498958338
Cs2Hg3I8,mp-540574,2.56,1.7313999999999998,-0.979369959754641
Ba2SmInSe5,mp-1188304,2.22,1.0779999999999998,-1.879282181487268
SbSeBr,mp-1209072,1.87,1.4377999999999997,-0.8043009266145843
K2Al2B2O7,mp-560217,6.89,4.5949,-2.9888062550256396
TePb,mp-19717,0.21,0.8063000000000002,-0.5038298999999995
InCuS2,mp-22736,1.54,0.0,-0.6243807539062498
AlSb,mp-2624,1.32,1.2255000000000003,-0.25297548500000033
Zn0.9S0.9Ga0.1P0.1,N/A,2.8,N/A,N/A
Ag2O,mp-353,1.4,0.0,-0.3141996186111082
Sb2Te3,mp-1201,0.3,0.13140000000000018,-0.38319984600000223
CsInHgS3,mp-1194853,2.3,1.3790000000000002,-0.9318943202203069
Ge0.542Si0.458,N/A,2.24,N/A,N/A
InCuTe2,mp-22261,0.89,0.0,-0.36635076125000055
Ga2HgSe4,mp-4730,1.95,0.9168000000000001,-0.600496146250001
Sr3Ti2O7,mp-3349,3.26,1.8404999999999996,-3.3961570131944447
Te2Ru,mp-267,0.25,0.28470000000000084,-0.40611876333333896
CdTe,mp-406,1.53,0.5846000000000002,-0.5607400050000031
InCuGeSe4,mp-1224210,1.3,0.6493000000000002,-0.6293799172916665
GeTe2,N/A,0.3,N/A,N/A
V2Zn3TeO10,mp-554700,2.96,2.6795999999999998,-2.0073855296354157
Zn3As2,mp-680580,0.51,0.16469999999999985,-0.14362237106250042
K2Hg3S1.03Se2.97,N/A,2.11,N/A,N/A
NaSb(PS3)2,mp-554384,2.25,2.0182999999999995,-0.7241097683165016
YNiSb,mp-11520,0.18,0.2945000000000002,-0.949398749999998
NaAsSe2,mp-984519,1.57,1.0293,-0.6503431157812489
PbI2,mp-567503,2.41,2.4455,-0.9556307083333303
As2S3,mp-1189572,2.1,1.9873,-0.15593288218749848
RbMn4Ga5Te12,N/A,1.53,N/A,N/A
Cs2Hg5.75Cd0.25S7,N/A,1.66,N/A,N/A
NiO,mp-19009,4.0,2.3008999999999995,-1.2159339412499994
CsI,mp-614603,6.4,3.8556,-1.7590934148275887
B2Se2O7,mp-558521,4.64,3.9417999999999997,-1.9012196391382565
Cd3P2,mp-2441,0.5,0.0018000000000002458,-0.12317778194047549
SiTe2,mp-2755,1.85,0.0,0.048259371666664684
Cs2PdP2Se6,N/A,1.6,N/A,N/A
Cu2SnSe3,mp-1200177,0.7,0.08579999999999988,-0.3417845012812464
LaCuTeO,mp-546790,2.31,1.1839000000000004,-2.176394974791667
BaSi2,mp-1477,1.3,0.7812999999999999,-0.3128932520833351
K2Ce(PO4)2,mp-1195550,2.46,1.4179000000000002,-3.0122309499065927
GaAs0.6P0.4,N/A,1.91,N/A,N/A
Li2HgSnS4,N/A,2.32,N/A,N/A
NaCl,mp-22862,8.5,5.0037,-2.0384011712500003
Cd(InS2)2,mp-559200,2.3,1.0503999999999998,-0.7870932551785715
Pb0.95Ge0.05Te,N/A,0.34,N/A,N/A
InN,mp-22205,2.09,0.0,-0.11770066687499892
KI,mp-22898,5.92,3.8513,-1.6953124236249995
Te3As2,mp-484,1.62,0.43260000000000076,-0.0015087340000007998
BSb,mp-997618,2.6,0.7506000000000004,0.273972750416668
CrO3,mp-510421,1.4,2.2885,-1.507980339374999
CsBiSe2,mp-1096942,1.07,0.9529999999999998,-0.924738501085669
Mg3As2,mp-1990,2.2,1.431,-0.78755513925
CsCu2SbS3,N/A,1.63,N/A,N/A
AsI3,mp-23218,2.47,2.2375000000000003,-0.5166278381249985
HgCl,mp-22897,3.8,2.7243000000000004,-0.6212518125000024
Bi2Cu0.96Se3I,N/A,0.68,N/A,N/A
CdS0.01Se0.99,N/A,1.68,N/A,N/A
NaAsSe2,mp-984519,1.56,1.0293,-0.6503431157812489
TlSe,mp-1836,0.96,0.19799999999999995,-0.37315311578124977
Rb4Ag9Sb4S12,N/A,2.0,N/A,N/A
AgIn9Te14,N/A,1.5,N/A,N/A
Ba2SnSe4,mp-1192595,1.9,1.2645999999999997,-1.633364205625
SnS,mp-2231,1.26,0.9047999999999998,-0.4716001876562501
BiClO,mp-22939,3.46,2.5681000000000003,-1.7108279158333328
TiNiSb,mp-20952,0.42,0.0,-0.5575641111111113
ZnS,mp-554820,3.67,2.0195,-0.9622174221205354
Cu0.01Ga1.99Se2.99,N/A,1.99,N/A,N/A
Cu0.5In1.5Se2.5,N/A,1.24,N/A,N/A
Na8Al8Si38,N/A,0.64,N/A,N/A
AgI,mp-580941,2.92,1.3759000000000001,-0.49308303083333227
Cu0.3Ga1.7S2.7,N/A,2.6,N/A,N/A
Ge2Sb2Te5,mp-1224375,0.5,0.2878999999999996,-0.3358721048148144
CsPPbO4,mp-1192530,4.39,4.0581,-2.426433549185432
KH3(SeO3)2,mp-1180593,4.9,4.3334,-1.4038619994322918
PdPAs,N/A,0.45,N/A,N/A
K2Sm2Ti3O10,N/A,3.26,N/A,N/A
Sn2WO5,mp-557633,2.6,2.2257999999999996,-1.9282492753124973
Pb0.95Se0.95Sn0.05Se0.05,N/A,0.19,N/A,N/A
Ga2O3,mp-886,4.4,2.0077999999999996,-2.095803156000001
SnSe2,mp-665,1.62,0.7018,-0.4238967693750008
Ga2O3,mp-886,4.54,2.0077999999999996,-2.095803156000001
RbBiS2,mp-30041,1.2,1.339,-1.0293574356250002
NdB6,mp-1929,4.9,0.0,-0.5418206903571416
GaAs0.5P0.5,N/A,2.0,N/A,N/A
CsZn4In5Te12,N/A,1.61,N/A,N/A
NiP2,mp-22619,0.3,0.0,-0.40791869115079277
CsYbMnSe3,N/A,1.59,N/A,N/A
Ba4AgGa5S12,N/A,2.52,N/A,N/A
KInS2,mp-505412,3.0,1.9107,-1.1824234931666666
Ag2HgI4,mp-1229122,2.47,1.2763999999999998,-0.5410528708333356
K10Zn4Sn4S17,mp-1224229,3.1,2.1803999999999997,-1.1835766015714277
Gd1.87Lu2.13Se6,N/A,1.56,N/A,N/A
Cs2SnP2Se6,N/A,2.06,N/A,N/A
PPdS,mp-7280,1.4,1.0142999999999995,-0.5030339394295638
HgPS3,mp-27178,2.6,1.7549,-0.4847087179285737
InAgSe2,mp-20554,1.2,0.0,-0.6512377807552081
CoTe1.88,N/A,0.2,N/A,N/A
SrIr4In2Ge4,N/A,0.25,N/A,N/A
NaSbF6,mp-5955,3.76,4.8892,-2.8646647357974135
CdIn8Te13,N/A,1.02,N/A,N/A
Cu3GdTe3,N/A,0.52,N/A,N/A
Cu0.99In1.01Se2.01,N/A,1.08,N/A,N/A
In0.5Ga0.5P,N/A,1.9,N/A,N/A
Ge0.9Si0.1,N/A,0.8,N/A,N/A
TlGaSe2,mp-17254,1.65,1.5111000000000003,-0.6917579945312475
NaCl,mp-22862,8.4,5.0037,-2.0384011712500003
In4Se3,mp-19932,0.64,0.1504000000000003,-0.5609965503124995
CsErZnSe3,mp-7155,2.63,2.1566,-1.6477162236144036
InSe,mp-20485,1.3,0.4590000000000001,-0.676726512031248
NaGaGe3Se8,N/A,2.35,N/A,N/A
Bi3F3I4O13,N/A,3.7,N/A,N/A
Pb0.94Sn0.06Se,N/A,0.22,N/A,N/A
SnSe,mp-691,0.9,0.5159000000000002,-0.45354630828125053
Cu3HoSe3,N/A,0.16,N/A,N/A
RbInGeS4,N/A,3.1,N/A,N/A
Cu2Se,mp-1097707,1.1,0.051899999999999835,-0.07560757614583243
AgF,mp-7592,2.8,0.0,-1.1238022562500003
KSbSe2,mp-9576,1.65,1.1298000000000001,-0.8151912723437498
Cu2Ga4Te7,N/A,1.18,N/A,N/A
Sm2Sc3,N/A,2.3,N/A,N/A
ZnO,mp-2133,3.25,0.7227,-1.647445170000001
CdSnAs2,mp-3829,0.41,0.006299999999999972,-0.11699921750000009
Cd4As2I3,mp-27528,2.3,1.1745999999999999,-0.48179171124999937
WSe2,mp-1821,1.35,1.4465,-0.6036195060416674
Ba3B1.5S6Bi0.5,N/A,2.43,N/A,N/A
HgBr,mp-23177,2.6,2.2557,-0.7310557787500027