Formula,Material ID,Experimental Band Gap (eV),Band Gap (eV),Formation Energy (eV/atom)
As2Se3,mp-909,1.77,1.4466,-0.1394828539374998
Sb2O3,mp-2136,3.2,2.2239000000000004,-1.4545398395000009
Sn3WO6,mp-556980,2.49,2.1615,-1.8554821147499991
Ge3Ru2,mp-21945,0.52,0.3814000000000002,-0.3334661397499985
KPSe6,mp-18625,2.16,1.8828,-0.6817221835569187
ReS2,mp-572758,1.0,1.3202000000000005,-0.9015415041666668
PbCl2,mp-23291,3.94,3.7939,-1.308738062500003
Ba2DyGaTe5,mp-1105922,1.13,0.4117999999999999,-1.5197731486111106
AgBiS2,mp-1172905,0.9,0.4917999999999995,-0.4868797491666659
TlSe,mp-1836,0.71,0.1979999999999999,-0.3731531157812497
La2Mn(SeO)2,mp-1196301,1.6,1.7513000000000003,-2.73454327090979
RbTbSe2,mp-10782,2.5,1.9336,-1.96795239971354
Na2Ge2Se5,mp-17964,2.38,1.4023,-0.8632113688308221
ReS2,mp-572758,1.1,1.3202000000000005,-0.9015415041666668
TaCu3S4,mp-10748,3.0,1.9231000000000005,-0.8675523021666667
GaCuTe2,mp-3839,1.18,0.2057999999999999,-0.3463419449999989
K2Hg(PSe3)2,mp-568855,2.25,1.3922,-0.7782633984407471
PrTl2InSe4,mp-1219751,0.93,1.2316000000000005,-1.0373422766145808
NdLuSe3,mp-13327,1.61,0.4956,-2.1870565612708304
ScTlS2,mp-13312,1.51,0.9331000000000004,-1.6159478783333243
CdSiP2,mp-4666,2.1,1.4257,-0.2725821789880935
ZnGeN2,mp-2979,3.2,1.6955,-0.3598719362500002
KAsSe2,mp-14659,1.62,1.5959,-0.8468918267343755
Ba2In2Se5,mp-573635,2.12,1.3945,-1.5155049870891195
Cs3Sb2I9,mp-23029,1.89,1.8679,-1.183922543497539
Nd2HfS5,mp-1196123,0.7,1.0667,-2.18668663425781
TlS,mp-561066,1.36,0.8102,-0.4736413821354199
PbN6,mp-667338,2.98,2.5064,0.1093108311904713
LiSbS2,mp-1079885,1.36,0.0910999999999999,-0.920953233333334
AlSb,mp-2624,1.69,1.2255000000000005,-0.2529754850000003
YCuO2,mp-2918,3.5,2.647,-2.62231567375
VGa(TeO4)2,mp-1195697,3.0,2.8924,-1.8938147202777769
Si(Bi3O5)4,mp-23492,3.25,2.347799999999999,-1.8084032248484867
CdAs2,mp-471,1.2,0.1331999999999999,-0.0612309899999997
Te3As2,mp-484,1.68,0.4326000000000007,-0.0015087340000007
TlHg6Se4Br5,mp-1202157,2.8,1.989,-0.7220630248567736
KCu3S2,mp-9868,1.46,0.4727000000000005,-0.6251568928749999
AgP15,mp-1195243,1.47,1.2132000000000005,0.0029234768973225
CdGeP2,mp-3668,1.8,0.6455000000000002,-0.1508316327380949
ReS2,mp-572758,1.33,1.3202000000000005,-0.9015415041666668
ZnSe,mp-1190,2.81,1.1663,-0.951561031171876
CuBr,mp-22913,2.99,0.4870999999999998,-0.559571324999999
Eu(TmSe2)2,mp-542964,1.8,0.1943000000000001,-1.6856404966071434
Mg3N2,mp-1559,2.8,1.5099999999999998,-0.9422394225000004
BiSI,mp-23514,1.64,1.8669,-0.7283613416666661
Zn3As2,mp-680580,1.11,0.1646999999999998,-0.1436223710625004
GaAgSe2,mp-5518,1.65,0.2491999999999998,-0.6880345922135409
As2S3,mp-1189572,2.2,1.9873,-0.1559328821874984
As2S3,mp-1189572,2.32,1.9873,-0.1559328821874984
As2S3,mp-1189572,2.43,1.9873,-0.1559328821874984
CdAs2,mp-471,0.89,0.1331999999999999,-0.0612309899999997
CdSb,mp-1321,0.49,0.0200999999999997,-0.0958698493749992
GaCuSe2,mp-4840,1.63,0.0398,-0.5736508945312497
GaAs,mp-2534,1.58,0.1861000000000001,-0.4462770562500004
In4Te3,mp-617281,0.57,0.1223999999999998,-0.3945398596428536
KI,mp-22898,6.38,3.8513,-1.6953124236249997
NaBiSe2,mp-1221101,0.28,1.0922999999999998,-0.9754612565167028
SnSe,mp-691,0.94,0.5159000000000002,-0.4535463082812505
Zn3As2,mp-680580,1.09,0.1646999999999998,-0.1436223710625004
Zn3As2,mp-680580,0.98,0.1646999999999998,-0.1436223710625004
ZnSe,mp-1190,2.67,1.1663,-0.951561031171876
ZnSe,mp-1190,2.76,1.1663,-0.951561031171876