Formula,Material ID,Experimental Band Gap (eV),Band Gap (eV),Formation Energy (eV/atom)
CuBr,mp-22913,3.08,0.4870999999999998,-0.559571324999999
CrB2(PbO2)6,mp-1197022,1.8,1.8898,-1.919117832420633
K2NbCuS4,mp-9763,2.82,1.9582,-1.2933897643125
BAs,mp-10044,1.46,1.2036999999999995,-0.0416371147916656
CuBr,mp-22913,2.94,0.4870999999999998,-0.559571324999999
HgSe,mp-1018722,0.07,1.0432,-0.2369207132812505
In5AgTe8,mp-1224268,0.47,0.1787999999999998,-0.4364343917857159
TlS,mp-561066,1.37,0.8102,-0.4736413821354199
As2Pt,mp-2513,0.55,0.0785,-0.6073781699999993
AlSb,mp-2624,1.67,1.2255000000000005,-0.2529754850000003
AgI,mp-580941,3.02,1.3759,-0.4930830308333322
GaAs,mp-2534,1.46,0.1861000000000001,-0.4462770562500004
Te3As2,mp-484,1.76,0.4326000000000007,-0.0015087340000007
CdP4,mp-7904,1.05,0.6551,-0.1207425323809516
RbSbS2,mp-10621,2.1,1.9493,-0.9648460499999976
GaAs,mp-2534,1.51,0.1861000000000001,-0.4462770562500004
TaNO,mp-4165,2.8,1.9337999999999995,-2.262669408277778
KBiSe2,mp-36539,0.7,0.8130999999999999,-0.9184257667343748
PbN6,mp-667338,3.02,2.5064,0.1093108311904713
CaO,mp-2605,6.97,3.630100000000001,-3.2301091375000013
AgI,mp-580941,2.8,1.3759,-0.4930830308333322
SnSe,mp-691,1.2,0.5159000000000002,-0.4535463082812505
SnSe,mp-691,1.3,0.5159000000000002,-0.4535463082812505
Ba2ErGaTe5,mp-1105724,1.15,0.4189000000000002,-1.5139029800925925
CdSb,mp-1321,0.57,0.0200999999999997,-0.0958698493749992
PtS,mp-288,0.8,0.3848000000000002,-0.5329758164062461
KSbSe2,mp-9576,1.14,1.1298,-0.8151912723437498
Ag3AsSe3,mp-662599,1.98,0.8906000000000001,-0.3023674824330352
As2Se3,mp-909,1.84,1.4466,-0.1394828539374998
As2Ru,mp-766,0.8,0.4492000000000002,-0.4567363066666677
BaSe,mp-1253,3.58,1.9488,-2.283761781171875
K2In2P3Se10,mp-1199715,2.2,1.5675,-0.7629913194234933
Cd4P2I3,mp-568545,2.17,1.379,-0.4599635595039674
Na3Sb,mp-7956,1.1,0.3946,-0.5695521887500004
Ba2YGaTe5,mp-1189739,1.08,0.4222000000000001,-1.523391530648147
PbSe,mp-2201,0.17,0.4256999999999999,-0.6725727545312452
PbI2,mp-567503,2.36,2.4455,-0.9556307083333304
HgI,mp-22859,2.37,1.6426000000000005,-0.4688898362500029
Rb3Cd(BO2)5,mp-1200569,2.34,3.7196,-2.596088455570176
BiSBr,mp-23324,1.92,2.032,-0.930759983333336
NaBr,mp-22916,7.03,4.0895,-1.8674453799999997
La4Cd4In2S13,mp-1196490,2.27,1.1568999999999994,-1.5245566742753611
HgSe,mp-1018722,0.6,1.0432,-0.2369207132812505
RuSe2,mp-1922,1.0,0.3137999999999996,-0.5235113602083317
Cs3Bi,mp-635413,0.55,0.1789999999999998,-0.2936479972413814
TeSe,mp-1217322,1.58,0.7062000000000008,-0.0109307261979149
ZnSe,mp-1190,2.79,1.1663,-0.951561031171876
NbCu3Se4,mp-4043,2.45,1.3604000000000005,-0.5960067795312494
RbInTe3O8,mp-1192556,3.9,3.0269000000000004,-1.712218064166665
ZnSe,mp-1190,2.82,1.1663,-0.951561031171876
Li2TeWO6,mp-1196881,4.0,3.640099999999999,-2.085479656833332
ZrSe3,mp-1683,1.5,0.3979000000000003,-1.2367712330468734
KThCuS3,mp-12365,2.95,2.0422,-1.718620678291665
AlSb,mp-2624,1.5,1.2255000000000005,-0.2529754850000003
GaCuTe2,mp-3839,1.0,0.2057999999999999,-0.3463419449999989
HgSe,mp-1018722,0.1,1.0432,-0.2369207132812505
Te3As2,mp-484,1.72,0.4326000000000007,-0.0015087340000007
ScTlTe2,mp-13314,0.85,0.0445999999999999,-1.133194870416668
CdSb,mp-1321,0.45,0.0200999999999997,-0.0958698493749992
PbSe,mp-2201,0.27,0.4256999999999999,-0.6725727545312452
DyN,mp-1410,2.6,0.0430999999999994,-2.020705376875
CdSiAs2,mp-3078,1.5,0.4001999999999999,-0.1066761587500009
Te3As2,mp-484,1.63,0.4326000000000007,-0.0015087340000007
P2Se5,mp-28860,2.2,1.2912,-0.0313288783949831
CsAg5Te3,mp-9206,0.65,0.0200999999999997,-0.4285212814431666
SiP2,mp-9996,1.89,1.4262,-0.1423907315674597
As2S3,mp-1189572,1.89,1.9873,-0.1559328821874984
Dy2O3,mp-2345,5.0,3.925499999999999,-3.937661027249999
Ba2SmGaTe5,mp-1189729,1.04,1.0132,-1.5317483739814806
Na2EuGeSe4,mp-1221353,2.0,0.1751,-1.2717935915167025
AlSb,mp-2624,1.63,1.2255000000000005,-0.2529754850000003
MnO,mp-1232659,3.6,1.310499999999999,-2.0304362002155187
CdSb,mp-1321,0.56,0.0200999999999997,-0.0958698493749992
Ge3Ru2,mp-21945,0.34,0.3814000000000002,-0.3334661397499985
ZnAs,mp-7372,0.9,0.2952999999999997,-0.126449774375001
PbSe,mp-2201,0.18,0.4256999999999999,-0.6725727545312452
FeSi2,mp-1714,0.9,0.6966000000000001,-0.3956350933333337
Ba2NdGaS5,mp-1228486,2.12,1.8105,-1.9643213247222224
Ba2TaInO6,mp-1079630,4.17,3.945899999999999,-3.0724771598999987
As2S3,mp-1189572,2.78,1.9873,-0.1559328821874984
Te3As2,mp-484,1.64,0.4326000000000007,-0.0015087340000007
MgCu2SiS4,mp-1205334,3.2,1.6730999999999998,-0.95238416875
LiInS2,mp-1188392,3.56,2.2212,-1.1272425393229175
CI4,mp-27962,2.26,1.1181,0.1884741644999998
ZrS3,mp-9921,2.17,1.1132999999999995,-1.574012124374999
Ag3AsSe3,mp-662599,2.24,0.8906000000000001,-0.3023674824330352
KI,mp-22898,6.31,3.8513,-1.6953124236249997
In3CuSe5,mp-1224175,0.6,0.2720000000000002,-0.6278087005902775
Ca3Ti2(SiO4)3,mp-1154470,1.65,0.0693000000000001,-3.386008511958333
CdGeAs2,mp-4953,0.61,0.0085000000000001,-0.0763771949999991
CdF2,mp-241,6.0,2.8977000000000004,-2.459148011666666
AgTe,mp-568761,0.85,0.2411000000000003,-0.0707509337499985
ZnSe,mp-1190,2.8,1.1663,-0.951561031171876
NbCuO3,mp-17272,2.0,0.959,-2.2969955079999984
Ba3ThSe7,mp-1095255,1.96,0.923,-1.9382507033096583
MoO3,mp-715584,3.54,1.9098,-1.9214148340624997
KAsSe2,mp-14659,1.63,1.5959,-0.8468918267343755
CsYZnSe3,mp-574620,2.41,2.1117,-1.6464527302810703
K2FeGe3Se8,mp-1200819,1.95,0.1131999999999999,-0.7921985091607147
KI,mp-22898,6.25,3.8513,-1.6953124236249997
CuBr,mp-22913,2.91,0.4870999999999998,-0.559571324999999
YSbPd,mp-1207056,0.27,0.4744000000000001,-1.239788086666664
Sb2Te3,mp-1201,0.19,0.1314000000000001,-0.3831998460000022
CdGeP2,mp-3668,1.65,0.6455000000000002,-0.1508316327380949
KI,mp-22898,6.28,3.8513,-1.6953124236249997
SnSe,mp-691,0.88,0.5159000000000002,-0.4535463082812505
CdGeAs2,mp-4953,0.41,0.0085000000000001,-0.0763771949999991
As2S3,mp-1189572,2.35,1.9873,-0.1559328821874984
As2S3,mp-1189572,2.74,1.9873,-0.1559328821874984
Na3Sb,mp-7956,1.0,0.3946,-0.5695521887500004
LiGaO2,mp-5854,5.6,3.1981,-2.376723418333333
KTiPO5,mp-6268,3.8,3.0442,-3.046276721747025
AsS,mp-542810,2.4,1.9674000000000005,-0.1590996314062494
In2HgTe4,mp-19765,1.25,0.5295000000000001,-0.4048025396428564
FeSi2,mp-1714,0.95,0.6966000000000001,-0.3956350933333337
CaTaNO2,mp-556340,2.4,1.6121999999999996,-2.748832561966666
NaSb,mp-7944,0.82,0.6041000000000003,-0.4487233224999993
Na2Zn(SnS3)2,mp-1190487,2.93,1.7271,-0.9756425161598734
Ca2Sn,mp-22735,0.9,0.0559000000000002,-0.6472885424999978
K3Ta2AsSe11,mp-683905,1.45,1.1878000000000002,-1.024450614393995
K4Nb2S11,mp-15148,2.42,1.3942,-1.2162526068529398
SnGe,mp-995181,0.4,0.2086999999999998,0.4920218299999987
BaIn2(P2O7)2,mp-1205018,3.97,4.0047999999999995,-2.708902111281178
GaAs,mp-2534,1.52,0.1861000000000001,-0.4462770562500004
AgN3,mp-2247,3.44,1.5714,0.3541918383333353
LaMg2H7Pd,mp-1180682,1.0,0.7104999999999997,-0.3629422512499997
SiAs,mp-1863,1.57,1.4518999999999995,-0.0720071150000005
Nb2Pb2Se4O15,mp-1199265,2.79,2.6620999999999997,-1.888478024429347
Ba2YInTe5,mp-1106096,1.36,0.4731999999999998,-1.522011588888888
KI,mp-22898,6.2,3.8513,-1.6953124236249997
TlSe,mp-1836,0.56,0.1979999999999999,-0.3731531157812497
AgN3,mp-2247,3.9,1.5714,0.3541918383333353
PbI2,mp-567503,2.53,2.4455,-0.9556307083333304
Zn3As2,mp-680580,1.1,0.1646999999999998,-0.1436223710625004
HgSe,mp-1018722,0.32,1.0432,-0.2369207132812505
CaO,mp-2605,7.09,3.630100000000001,-3.2301091375000013
KI,mp-22898,6.17,3.8513,-1.6953124236249997
K3Cd(BO2)5,mp-1204785,3.47,3.818,-2.6040453447412277
In2Se3,mp-612740,1.2,0.9901999999999996,-0.6866874677708324
CuP2,mp-927,1.4,0.8679000000000006,-0.156310461150794
La6Sb4(SO4)3,mp-1223262,2.6,1.9578999999999995,-2.879055890700001
As2Se3,mp-909,1.85,1.4466,-0.1394828539374998
FeSi2,mp-1714,0.88,0.6966000000000001,-0.3956350933333337
In2Se3,mp-612740,1.25,0.9901999999999996,-0.6866874677708324
LiBiS2,mp-1222404,0.18,1.4793000000000005,-0.9981624420833316
RbCd(BO2)3,mp-1197285,4.2,3.8078,-2.5495924754545443
BiSBr,mp-23324,1.88,2.032,-0.930759983333336
ScSbPd,mp-569779,0.23,0.0155000000000002,-1.1327451249999996
As2S3,mp-1189572,2.23,1.9873,-0.1559328821874984
CdSnAs2,mp-3829,0.3,0.0062999999999999,-0.1169992175
ThTeO,mp-3718,1.45,0.2423999999999999,-2.993426336388886
CdSb,mp-1321,0.43,0.0200999999999997,-0.0958698493749992
Ga2Se3,mp-1340,2.3,1.0436,-0.7008674644374991
Tb4Al2O9,mp-1200490,4.59,4.0883,-3.815851893944445
CsAu,mp-2667,2.3,1.0233,-0.3651830700000005
PtS,mp-288,0.38,0.3848000000000002,-0.5329758164062461
CdSb,mp-1321,0.54,0.0200999999999997,-0.0958698493749992
Rb2NbCuSe4,mp-15222,2.19,1.6393999999999995,-1.1925669842968745
SrTiO3,mp-4651,3.15,1.8488,-3.4542551163333344
Cu2Se,mp-1097707,1.23,0.0518999999999998,-0.0756075761458324
Eu(BiSe2)2,mp-1193071,1.02,0.0541,-1.1052590970535714
TlSe,mp-1836,0.7,0.1979999999999999,-0.3731531157812497
VO2,mp-541404,0.12,0.2122000000000001,-2.5195996983333337
Cd(InSe2)2,mp-22304,1.72,0.9564,-0.8343265846726184
KI,mp-22898,5.61,3.8513,-1.6953124236249997
As2Pt,mp-2513,0.5,0.0785,-0.6073781699999993
Cd4As2I3,mp-27528,1.89,1.1746,-0.4817917112499993
HgO,mp-1224,2.21,1.1867,-0.3673530125000006
AlSb,mp-2624,1.65,1.2255000000000005,-0.2529754850000003
ZnSe,mp-1190,2.87,1.1663,-0.951561031171876
SbTeOs,mp-1103213,0.05,0.8576000000000015,-0.2261756005555568
AlSb,mp-2624,1.62,1.2255000000000005,-0.2529754850000003
In4Te3,mp-617281,0.55,0.1223999999999998,-0.3945398596428536
VO2,mp-541404,0.5,0.2122000000000001,-2.5195996983333337
P2Rh,mp-15953,1.0,0.3704999999999998,-0.7267235144841256
ZnAs2,mp-7262,0.91,0.2240999999999999,-0.1489907495833335
Te3As2,mp-484,1.75,0.4326000000000007,-0.0015087340000007
PbS,mp-21276,0.41,0.4666999999999994,-0.7835693762499978
ZnSe,mp-1190,2.71,1.1663,-0.951561031171876
CdSnP2,mp-5213,1.5,0.2694999999999998,-0.0848958823214274
Ba2GaBiTe5,mp-1202829,1.43,1.0651999999999997,-1.1942929745370363
Ca3(BN2)2,mp-1227905,4.1,2.4714000000000005,-1.384212677962963
AsP,mp-1228799,0.23,0.4581999999999997,0.0590724958333339
Sb2O3,mp-2136,3.31,2.2239000000000004,-1.4545398395000009
Ba2SnSe5,mp-31307,1.8,1.1384,-1.5117992986523436
ZrS3,mp-9921,2.28,1.1132999999999995,-1.574012124374999
HoN,mp-883,1.9,0.0874999999999999,-2.0596644168749982
NaI,mp-23268,5.8,3.5687,-1.475365545689655
CdSiP2,mp-4666,1.8,1.4257,-0.2725821789880935
ZnSb,mp-753,1.11,0.0282,-0.0614477549999996
K2VAgS4,mp-8900,1.85,1.3049999999999995,-1.1888517170208233
AgSbS2,mp-3922,1.9,1.3716000000000004,-0.2496304714062489
PbSe,mp-2201,0.22,0.4256999999999999,-0.6725727545312452
ZrSe3,mp-1683,1.6,0.3979000000000003,-1.2367712330468734
Cu2Se,mp-1097707,1.5,0.0518999999999998,-0.0756075761458324
NaI,mp-23268,6.75,3.5687,-1.475365545689655
CdSnP2,mp-5213,1.17,0.2694999999999998,-0.0848958823214274
PtS,mp-288,0.64,0.3848000000000002,-0.5329758164062461
ZnSe,mp-1190,2.69,1.1663,-0.951561031171876
KBiSe2,mp-36539,0.67,0.8130999999999999,-0.9184257667343748
TlN3,mp-870,3.58,1.7584,0.3105548446875019
VO2,mp-541404,0.4,0.2122000000000001,-2.5195996983333337
Mg2Si,mp-1367,2.27,0.2179999999999999,-0.1085987633333331
PbSe,mp-2201,0.29,0.4256999999999999,-0.6725727545312452
KSbSe2,mp-9576,1.72,1.1298,-0.8151912723437498
AlCuTe2,mp-8017,2.06,1.0186000000000002,-0.4251942062500013
GaCuSe2,mp-4840,1.71,0.0398,-0.5736508945312497
RbNb3(TeO6)2,mp-1201687,3.49,2.4033,-2.493609054074074
CdAs2,mp-471,1.0,0.1331999999999999,-0.0612309899999997
AlSb,mp-2624,1.52,1.2255000000000005,-0.2529754850000003
CdSiP2,mp-4666,2.2,1.4257,-0.2725821789880935
K2Se,mp-8426,1.8,2.0925,-1.2941353355208325
In6Se7,mp-1192955,0.34,0.4608000000000007,-0.6397181044951922
BaGa2GeS6,mp-1227983,3.26,2.7663,-1.225007931499999
PbS,mp-21276,0.31,0.4666999999999994,-0.7835693762499978
PbS,mp-21276,0.38,0.4666999999999994,-0.7835693762499978
NaIn(TeO3)2,mp-1194878,4.0,2.9873000000000003,-1.7427578002629305
CdSb,mp-1321,0.53,0.0200999999999997,-0.0958698493749992
Tb2EuSe4,mp-646337,2.0,0.1933000000000002,-2.196415628601191
As2S3,mp-1189572,2.6,1.9873,-0.1559328821874984
CdSiAs2,mp-3078,1.51,0.4001999999999999,-0.1066761587500009
PbSe,mp-2201,0.28,0.4256999999999999,-0.6725727545312452
Zn(InSe2)2,mp-22607,1.95,0.9929,-0.8611685975297608
CaTe,mp-1519,4.3,1.5535,-1.9175140150000016
Zn(InSe2)2,mp-22607,2.05,0.9929,-0.8611685975297608
In2HgTe4,mp-19765,1.17,0.5295000000000001,-0.4048025396428564
BaSe,mp-1253,3.7,1.9488,-2.283761781171875
GaAs,mp-2534,1.43,0.1861000000000001,-0.4462770562500004
As2Os,mp-2455,0.92,0.6646999999999998,-0.3038927850000021
UHg4(AsCl3)2,mp-570252,1.9,0.3263,-1.1643228300961554
Eu(InSe2)2,mp-1104657,1.31,0.0786000000000002,-1.2157020096726183
PbS,mp-21276,0.39,0.4666999999999994,-0.7835693762499978
CdSiP2,mp-4666,2.4,1.4257,-0.2725821789880935
Sb2Os,mp-2695,0.21,0.3447000000000013,-0.0839943783333344
CdSnP2,mp-5213,1.16,0.2694999999999998,-0.0848958823214274
Cd(InSe2)2,mp-22304,1.3,0.9564,-0.8343265846726184
ZnAs2,mp-7262,0.92,0.2240999999999999,-0.1489907495833335
BaPd(IO3)4,mp-1106270,1.97,1.9057999999999995,-1.1689324177777765
K2Ge3(BO5)2,mp-560019,5.38,3.8683,-2.399320128107843
SrTiO3,mp-4651,3.4,1.8488,-3.4542551163333344
As2S3,mp-1189572,3.0,1.9873,-0.1559328821874984
As2S3,mp-1189572,2.06,1.9873,-0.1559328821874984
Rb2VCuS4,mp-15219,1.85,1.2439,-1.2795823906249997
InAgS2,mp-19833,1.9,0.3772999999999999,-0.5591274251562499
Cd(InSe2)2,mp-22304,2.0,0.9564,-0.8343265846726184
NaBr,mp-22916,7.26,4.0895,-1.8674453799999997
CdGeAs2,mp-4953,0.65,0.0085000000000001,-0.0763771949999991
Sb2Os,mp-2695,0.2,0.3447000000000013,-0.0839943783333344
BiBr3,mp-2913080,2.66,2.8833,-1.24783832625
CdSb,mp-1321,0.46,0.0200999999999997,-0.0958698493749992
ReSe2,mp-541582,1.15,1.1434000000000002,-0.4631658177083295
Ag3AsSe3,mp-662599,2.2,0.8906000000000001,-0.3023674824330352
FeBi(SeO3)3,mp-1197024,2.54,2.6249,-1.4386388853236614
Li3ScN2,mp-542435,2.9,2.2440999999999995,-1.0498281918749983
CaO,mp-2605,7.03,3.630100000000001,-3.2301091375000013
LiMoIO6,mp-558917,2.8,2.2334,-1.6323878609259257
SbSeBr,mp-1209072,1.87,1.4377999999999995,-0.8043009266145843
AlSb,mp-2624,1.32,1.2255000000000005,-0.2529754850000003
Sb2Te3,mp-1201,0.3,0.1314000000000001,-0.3831998460000022
CsInHgS3,mp-1194853,2.3,1.3790000000000002,-0.9318943202203068
Ga2HgSe4,mp-4730,1.95,0.9168,-0.600496146250001
Te2Ru,mp-267,0.25,0.2847000000000008,-0.4061187633333389
V2Zn3TeO10,mp-554700,2.96,2.6796,-2.0073855296354157
Zn3As2,mp-680580,0.51,0.1646999999999998,-0.1436223710625004
PbI2,mp-567503,2.41,2.4455,-0.9556307083333304
As2S3,mp-1189572,2.1,1.9873,-0.1559328821874984
B2Se2O7,mp-558521,4.64,3.9418,-1.9012196391382563
Cu2SnSe3,mp-1200177,0.7,0.0857999999999998,-0.3417845012812464
KI,mp-22898,5.92,3.8513,-1.6953124236249997
Te3As2,mp-484,1.62,0.4326000000000007,-0.0015087340000007
TlSe,mp-1836,0.96,0.1979999999999999,-0.3731531157812497
Ba2SnSe4,mp-1192595,1.9,1.2645999999999995,-1.633364205625
AgI,mp-580941,2.92,1.3759,-0.4930830308333322
Sn2WO5,mp-557633,2.6,2.2257999999999996,-1.9282492753124971
K10Zn4Sn4S17,mp-1224229,3.1,2.1803999999999997,-1.1835766015714275
SnSe,mp-691,0.9,0.5159000000000002,-0.4535463082812505
Cu2Se,mp-1097707,1.1,0.0518999999999998,-0.0756075761458324
KSbSe2,mp-9576,1.65,1.1298,-0.8151912723437498
CdSnAs2,mp-3829,0.41,0.0062999999999999,-0.1169992175
Cd4As2I3,mp-27528,2.3,1.1746,-0.4817917112499993
CdSb,mp-1321,0.42,0.0200999999999997,-0.0958698493749992
BaSnO3,mp-3163,3.1,0.3723999999999998,-2.5848866415
BiIO,mp-22987,1.89,1.473,-1.3668964541666664
In6Se7,mp-1192955,0.86,0.4608000000000007,-0.6397181044951922
Cs3Bi,mp-635413,0.7,0.1789999999999998,-0.2936479972413814
Zn3As2,mp-680580,0.93,0.1646999999999998,-0.1436223710625004
Zn3As2,mp-680580,0.96,0.1646999999999998,-0.1436223710625004
PbS,mp-21276,0.44,0.4666999999999994,-0.7835693762499978
Tl2Cu2SnS4,mp-18240,1.4,0.2195,-0.5322312979629642
LiBiS2,mp-1222404,0.19,1.4793000000000005,-0.9981624420833316
CdGeAs2,mp-4953,1.1,0.0085000000000001,-0.0763771949999991
Ba2YInSe5,mp-1205397,2.31,1.1767999999999996,-1.8786954953761577
Ba2GaBiSe5,mp-1203584,2.21,1.7506,-1.498955658246527
As2S3,mp-1189572,2.8,1.9873,-0.1559328821874984
As2S3,mp-1189572,2.57,1.9873,-0.1559328821874984
ErN,mp-19830,3.0,0.1242999999999998,-2.0996089160416673
As2Se3,mp-909,1.7,1.4466,-0.1394828539374998
Zn3As2,mp-680580,1.0,0.1646999999999998,-0.1436223710625004
TlSe,mp-1836,0.8,0.1979999999999999,-0.3731531157812497
InAgO2,mp-20329,4.2,0.2347000000000001,-1.390265702083322
SiSn,mp-1009813,0.59,0.4291999999999998,0.1919988225000004
CoSbS,mp-5881,0.11,0.3673999999999999,-0.3702056617708346
AlSb,mp-2624,1.68,1.2255000000000005,-0.2529754850000003
Ag3AsSe3,mp-662599,2.18,0.8906000000000001,-0.3023674824330352
Pd(IO3)2,mp-1198404,1.31,0.9186,-0.7521232947222214
Ba2NdGaSe5,mp-1205363,2.18,1.6574000000000002,-1.905005200746528
CdSiAs2,mp-3078,1.62,0.4001999999999999,-0.1066761587500009
NaBiSe2,mp-1221101,0.35,1.0922999999999998,-0.9754612565167028
Te3As2,mp-484,1.59,0.4326000000000007,-0.0015087340000007
KTiPO5,mp-6268,3.54,3.0442,-3.046276721747025
As2S3,mp-1189572,2.37,1.9873,-0.1559328821874984
PbS,mp-21276,0.28,0.4666999999999994,-0.7835693762499978
NdF3,mp-254,6.15,7.6164,-4.454145914583333
CdHg4(AsI2)2,mp-570838,1.45,0.4617,-0.424610686818184
Cs4BiAs3Se7,mp-1204289,1.02,1.4739000000000002,-0.9232130704184636
K4Nb2S11,mp-15148,1.96,1.3942,-1.2162526068529398
K2Sn3(SbS5)2,mp-1195395,2.3,1.8166,-0.8388777726176466
SnGe,mp-995181,0.8,0.2086999999999998,0.4920218299999987
InAgS2,mp-19833,2.0,0.3772999999999999,-0.5591274251562499
MnF2,mp-560902,9.9,2.5363,-2.9683308309770116
Ag5IO6,mp-554648,1.4,0.0205000000000001,-0.51678237611111
AgTe,mp-568761,0.73,0.2411000000000003,-0.0707509337499985
GeAs,mp-9548,1.45,0.5112999999999999,-0.0602945845833341
As2S3,mp-1189572,2.21,1.9873,-0.1559328821874984
PdS2,mp-13682,0.75,0.4209999999999998,-0.3376738602083359
CdSiP2,mp-4666,2.16,1.4257,-0.2725821789880935
CdGeAs2,mp-4953,0.53,0.0085000000000001,-0.0763771949999991
PbS,mp-21276,0.42,0.4666999999999994,-0.7835693762499978
GaAgTe2,mp-4899,1.1,0.1926000000000001,-0.3421379924999996
LiInS2,mp-1188392,3.57,2.2212,-1.1272425393229175
PbSe,mp-2201,0.15,0.4256999999999999,-0.6725727545312452
In2Se3,mp-612740,1.0,0.9901999999999996,-0.6866874677708324
GaCuO2,mp-11019,1.47,0.7812999999999999,-1.5261653812499991
TlSe,mp-1836,0.57,0.1979999999999999,-0.3731531157812497
ZrSe3,mp-1683,1.25,0.3979000000000003,-1.2367712330468734
ZnSb,mp-753,1.05,0.0282,-0.0614477549999996
Rb2AgPS4,mp-1105212,2.6,2.2636000000000003,-0.9903325314136896
BaCu2SnSe4,mp-12364,0.48,0.4529999999999998,-0.9756099205468742
BiPO4,mp-1190564,3.85,3.7758,-2.4196647307738086
PbS,mp-21276,0.37,0.4666999999999994,-0.7835693762499978
Sb2Te3,mp-1201,0.35,0.1314000000000001,-0.3831998460000022
HgO,mp-1224,2.48,1.1867,-0.3673530125000006
NaNb2PS10,mp-557436,1.72,1.3602,-1.0437214677515831
InAgS2,mp-19833,1.88,0.3772999999999999,-0.5591274251562499
CdAs2,mp-471,1.13,0.1331999999999999,-0.0612309899999997
In2Se3,mp-612740,1.38,0.9901999999999996,-0.6866874677708324
Ag2SnSe3,mp-1096812,0.84,0.0586000000000002,-0.473000473810762
GaAgSe2,mp-5518,1.3,0.2491999999999998,-0.6880345922135409
CdSnAs2,mp-3829,0.31,0.0062999999999999,-0.1169992175
B4C,mp-1238815,1.64,3.0415,-0.1003448895
PbI2,mp-567503,2.55,2.4455,-0.9556307083333304
VO2,mp-541404,0.66,0.2122000000000001,-2.5195996983333337
TlCr5S8,mp-541823,1.01,0.1494999999999997,-0.9722336680952364
RbNb4Br11,mp-1201070,0.46,0.3233000000000001,-1.4414285314062507
CuP2,mp-927,1.45,0.8679000000000006,-0.156310461150794
SnSe,mp-691,0.95,0.5159000000000002,-0.4535463082812505
CdP4,mp-7904,1.15,0.6551,-0.1207425323809516
SiAs2,mp-978553,0.88,0.8890999999999996,-0.1092640879166661
SnTe,mp-1883,0.3,0.0419,-0.2650498800000029
DyN,mp-1410,2.1,0.0430999999999994,-2.020705376875
CaO,mp-2605,6.93,3.630100000000001,-3.2301091375000013
Ti(Bi3O5)4,mp-23494,3.09,2.3129999999999997,-1.826700913737372
PrLuSe3,mp-13326,1.56,0.4935,-2.189735595104165
KSb5S8,mp-15559,1.82,1.3375,-0.4600786190178557