Formula,Material ID,Experimental Band Gap (eV),Band Gap (eV),Formation Energy (eV/atom)
Li2FeGeS4,mp-1105387,1.42,0.0,-0.9975590102083327
Ce3LuSe6,mp-645694,1.1,0.0,-2.115394999822916
Ga1.05Sb0.95Te0.15,N/A,0.68,N/A,N/A
CsInTe2,mp-1199743,2.16,1.3522000000000003,-0.9421610549137931
Ga1.005Sb0.995Se0.015,N/A,0.64,N/A,N/A
TaGaS2,N/A,2.53,N/A,N/A
PrAs,mp-10622,1.0,0.0,-1.760069192083332
Li4.5Al0.5TeO6,N/A,4.9,N/A,N/A
K2Cd3Se4,mp-1198419,2.36,1.4027999999999998,-1.0315096512638873
Pb0.72Se0.72Sn0.28Te0.28,N/A,0.12,N/A,N/A
AgBr,mp-23231,2.52,0.7303999999999999,-0.5043995525000007
Ba2Ga8GeS16,N/A,3.0,N/A,N/A
ZnGeN2,mp-2979,2.9,1.6955,-0.35987193625000025
Ba3Ho2(PS4)4,mp-559171,3.3,2.3798999999999997,-1.487869573342856
RbCl,mp-23295,8.1,4.8388,-2.24487251375
Hg5AsS2I3,N/A,1.57,N/A,N/A
Cd3BiP3O12,N/A,3.9,N/A,N/A
EuH2,mp-1102496,1.85,0.0,-0.6866981791666689
NaNO2,mp-2964,2.99,0.0,-1.2314366828879306
BaZnSO,mp-548469,3.9,2.2367,-2.0769667062499995
InBi2S4Cl,mp-559521,1.5,1.593,-0.8540999945833319
TeI,mp-569766,1.1,0.7871000000000001,-0.2967093895833339
Rb2PtI6O18,N/A,2.4,N/A,N/A
BiSeI,mp-23020,1.3,1.5764000000000005,-0.7330664741145831
Cs1.43Cd1.43Bi2.57S6,N/A,1.28,N/A,N/A
InP2Se4,N/A,1.29,N/A,N/A
PbCl2,mp-23291,4.1,3.7939,-1.3087380625000027
PbO2,mp-20725,2.0,0.0,-0.9788828200000003
Cs2Ga2S5,N/A,3.26,N/A,N/A
Pb0.75Sn0.25Te,N/A,0.04,N/A,N/A
SnS0.99Se0.01,N/A,1.08,N/A,N/A
Pb3Se2(BrO3)2,mp-1194412,3.73,2.8328999999999995,-1.4476916599759602
Ba2GaS4,mp-1199702,2.55,1.8917000000000002,-1.7978759250000098
CuGa0.4In1.6S3.5,N/A,1.55,N/A,N/A
V2O5,mp-25279,2.34,2.2826000000000004,-2.2859484475000005
K3Nb2AsSe11,mp-542545,1.53,1.1647999999999998,-1.0221616776488975
Cu0.3Ga1.7S2.7,N/A,2.55,N/A,N/A
Si3Ru2,mp-22192,0.44,0.5510999999999999,-0.619356679500001
SnBr2,mp-29862,3.4,2.5387,-0.9049908233333331
Li2CdGeS4,mp-1189383,3.1,2.2472,-1.0986818620833327
Li2Ga2GeS6,mp-554782,3.65,2.1339,-1.0735962256060596
KLiCO3,mp-562137,6.32,4.5495,-2.187607085930555
SbSBr,mp-22971,2.21,1.7767,-0.8158934199999995
Dy(CuTe)3,mp-1225395,0.34,0.7643000000000004,-0.6056914835714257
MoSe2,mp-1634,1.6,1.3010000000000002,-0.7499368427083345
LaInS2O,N/A,2.73,N/A,N/A
Hg6.5As4CdCl6,N/A,1.86,N/A,N/A
K2Mn(SnSe3)2,mp-669410,2.0,0.8791,-0.9399147726357753
Ga1.02Sb0.98Se0.06,N/A,0.63,N/A,N/A
Ga0.7Al0.3As,N/A,1.81,N/A,N/A
CuInCd2Te3,N/A,0.7,N/A,N/A
Tl2TeBr6,mp-31076,2.06,2.1632,-1.0373544114814837
CuNiC4N4,N/A,2.7,N/A,N/A
Ba(GaSe2)2,mp-7841,3.16,1.8578000000000001,-1.36306374919643
Ga0.8Sb0.8Zn0.2Te0.2,N/A,1.15,N/A,N/A
Eu(DySe2)2,mp-645690,1.8,0.16570000000000018,-2.2508127051785727
Tm4Sb2Se11.68,N/A,1.22,N/A,N/A
MoO3,mp-715584,3.75,1.9098000000000002,-1.9214148340624995
RbHgSbTe3,mp-1219595,0.2,0.5502000000000002,-0.6012615250000005
POsSe,mp-1101841,1.4,0.5156999999999998,-0.40749074859623136
Li0.2Na0.8AsSe2,N/A,1.72,N/A,N/A
PbTe0.01Se0.99,N/A,0.26,N/A,N/A
Pb0.93Sn0.07Se,N/A,0.08,N/A,N/A
Al2S3,mp-1228491,4.1,3.0435000000000003,-1.2363791106875
BaV2SeO8,mp-1200210,2.13,2.0881000000000003,-2.313039331236979
La4Fe(SbSe5)2,mp-1200263,0.85,0.0,-1.483014864025736
Ba5Ga6GeP12,N/A,1.39,N/A,N/A
ErB6,mp-1296,3.5,0.0,-0.4196981397619055
Ga0.99Sb0.99Zn0.01Te0.01,N/A,0.72,N/A,N/A
TlCr5S6Se2,N/A,0.94,N/A,N/A
ScAg(PSe3)2,mp-13383,1.55,1.6441,-0.8055214505014874
YbAs,N/A,1.02,N/A,N/A
Sb2Te3,mp-1201,0.22,0.13140000000000018,-0.38319984600000223
Cd(InS2)2,mp-559200,2.2,1.0503999999999998,-0.7870932551785715
BiSeBr,mp-569707,1.54,1.6912,-0.9280288641145832
In6Se7,mp-1192955,0.64,0.46080000000000076,-0.6397181044951922
Ag0.5Eu1.75GeS4,N/A,2.14,N/A,N/A
GaAs0.9P0.1,N/A,1.5,N/A,N/A
Zn(InSe2)2,mp-22607,2.0,0.9929000000000001,-0.8611685975297608
Na2BaSnSe4,N/A,2.46,N/A,N/A
SbSI,mp-23041,1.84,1.6276000000000002,-0.6224157683333296
Cs2VAgS4,mp-8684,1.77,1.3867,-1.2311850638721262
Te2Mo,mp-602,1.08,0.8632999999999997,-0.30737176666666716
Pb6BBrO7,N/A,2.84,N/A,N/A
EuIn2(GeIr)4,mp-1095411,0.26,0.12710000000000043,-0.4879100634848496
Pb0.85Se0.85Ge0.15Te0.15,N/A,0.32,N/A,N/A
Na2Zn(GeS3)2,mp-1190399,3.04,2.2664999999999997,-0.9785350497962374
LaCuSO,mp-6088,3.1,1.668499999999999,-2.3538122362500005
PbSe,mp-2201,0.31,0.42569999999999997,-0.6725727545312452
Pb3O4,mp-22633,2.12,1.2818999999999998,-1.1801627332142866
K2Hg3(GeS4)2,mp-17792,2.7,1.5520999999999998,-0.7931307788000026
CaSe,mp-1415,5.0,2.0728000000000004,-2.315957819531251
BiSI,mp-23514,1.58,1.8668999999999998,-0.7283613416666661
CsCaBO3,N/A,3.93,N/A,N/A
Ba8Sn4S15,mp-1195594,2.31,2.0554,-1.7315744646296283
InAgSe2,mp-20554,1.22,0.0,-0.6512377807552081
VO2,mp-541404,0.65,0.21220000000000017,-2.5195996983333337
CsCdInSe3,N/A,2.4,N/A,N/A
Sm2Sn3Se9,N/A,0.7,N/A,N/A
LaSb,mp-1065,0.8,0.0,-1.530235762500002
K6CdTe4,mp-17698,2.51,1.6614,-1.1084541795606042
Ag2PdO2,mp-5495,0.18,0.0,-0.46959469166666495
BaAgSbS3,mp-1190401,2.2,1.4228999999999998,-1.117579406527777
CdHg6(As2Br3)2,mp-567910,1.94,1.3414,-0.5843531761764732
GaAs0.3P0.7,N/A,2.16,N/A,N/A
Ba3Cd(SnS4)2,mp-1228659,2.75,2.0791000000000004,-1.4873288762499988
SbAs,mp-1219457,1.6,0.0,-0.0012354462499999386
InSb2S4Br,mp-559864,1.8,1.5308000000000002,-0.7446993920833318
AgLi0.33Sn0.67O2,N/A,2.7,N/A,N/A
Li2MnGeS4,N/A,3.06,N/A,N/A
Ag3Ga3SiSe8,N/A,2.3,N/A,N/A
K0.8Hg1.2Sn2S8,N/A,2.78,N/A,N/A
Bi1.8Te3Sb0.2,N/A,0.15,N/A,N/A
Cs2Sb,mp-1191118,0.62,0.28390000000000004,-0.566693007083335
Nd10Se14O,mp-1202414,1.98,1.3835000000000002,-2.2996884458249656
KCu2SbS3,mp-1192531,1.7,0.9539,-0.6961365396071422
Li6Ga2Te8O22,N/A,3.85,N/A,N/A
InHg7S6Cl5,mp-1196151,2.54,1.4549000000000003,-0.7476407154824584
BiIO,mp-22987,2.12,1.4729999999999999,-1.3668964541666664
Na2GdP2O8,N/A,4.19,N/A,N/A
Ba3V2(SeO4)4,mp-1200758,2.87,2.6965000000000003,-2.189395985374999
Zn0.95S0.95Ga0.05P0.05,N/A,3.0,N/A,N/A
Cu2Te,mp-1861,1.15,0.0,0.08165582833333455
GeAs2,mp-17524,1.0,0.7195999999999998,-0.062423882499999195
FeAsS,mp-561511,0.06,0.7373000000000003,-0.6133404200000001
VCu3S4,mp-3762,1.0,1.0358000000000005,-0.8558000925
TaGaS2,N/A,2.4,N/A,N/A
As2Rh,mp-15954,1.15,0.2625000000000002,-0.5725928316666659
Ca3BiP3O12,N/A,4.2,N/A,N/A
BeSe,mp-1541,4.0,2.6636999999999995,-1.0293878636718743
BaSn2S5,mp-1202711,2.35,1.5453000000000001,-1.1445934543749994
Pb0.97Se0.97Ge0.03S0.03,N/A,0.28,N/A,N/A
SmSb2BO8,N/A,3.54,N/A,N/A
CsYZnSe3,mp-574620,2.29,2.1117,-1.6464527302810705
Sn2S,N/A,0.85,N/A,N/A
GaGeTe,mp-8211,1.1,0.16720000000000024,-0.29642961166666737
YbSe,N/A,1.5,N/A,N/A
BaO,mp-1342,4.8,2.0906000000000002,-2.82149134875
CBr4,mp-680422,3.7,2.9265,-0.2835667113749999
La2O3,mp-1968,5.4,3.8247999999999998,-3.7400531489999964
Ga2Se3,mp-1340,1.86,1.0435999999999999,-0.7008674644374991
Ag2CdP2S6,N/A,2.49,N/A,N/A
Ga0.01As0.01Zn0.99Se0.99,N/A,2.59,N/A,N/A
K2Cd3S4,mp-18101,2.75,1.7875999999999999,-1.0089438506944441
PrSb,mp-1785,0.66,0.0,-1.4281947458333306
SbPbBrO2,mp-1206466,2.67,1.8655,-1.6415315349999986
Ba2NdInSe5,mp-1190093,2.2,1.0692000000000004,-1.8761064989872682
CsCd4Ga5S12,N/A,3.09,N/A,N/A
Rb2HgP2Se6,N/A,2.32,N/A,N/A
KH3(SeO3)2,mp-1180593,5.03,4.3334,-1.4038619994322918
AgBi(PSe3)2,mp-569126,1.4,1.2778,-0.4708355825014877
Ba2DyGaSe5,mp-1105698,2.35,1.6672,-1.906788933431712
MgF2,mp-1249,11.1,6.824,-3.8256231883333336
SiAs,mp-1863,1.48,1.4518999999999997,-0.0720071150000005
Zn0.99S0.99Ga0.01P0.01,N/A,3.7,N/A,N/A
Ga0.5P0.5Zn0.5Se0.5,N/A,2.13,N/A,N/A
KBaAsSe3,mp-1191826,2.26,1.6299,-1.3398249369635422
CsSbSe2,mp-2969,1.7,1.1312,-0.9411761404606747
InS,mp-19795,1.86,1.3508000000000004,-0.6828759189062499
CdP2S4,N/A,3.76,N/A,N/A
BiSe,mp-27902,0.4,0.0,-0.5761677770052103
Ni(CN)2,mp-1246305,2.0,0.0,0.49535277249999865
AgPbBiSe3,N/A,0.13,N/A,N/A
AsOsS,mp-1214793,1.3,1.1795,-0.4430675251041644
Rb6P3S15,N/A,2.3,N/A,N/A
Er2O3,mp-679,5.42,3.9629000000000003,-3.988030907833334
RhSe2,mp-1192175,0.6,0.0,-0.5162596327083335
Bi2Te2.1Se0.9,N/A,0.3,N/A,N/A
Nd3Te4,mp-2204,1.6,0.0,-1.676373578928572
Ge0.7Si0.3,N/A,0.88,N/A,N/A
InSn2As2Se,N/A,0.2,N/A,N/A
NaNbSe2O7,mp-1190450,3.8,2.9067000000000003,-1.976210328960618
Se0.6Te0.4,N/A,1.2,N/A,N/A
In0.95As0.95Cd0.05Te0.05,N/A,0.68,N/A,N/A
In4Se3,mp-19932,0.65,0.1504000000000003,-0.5609965503124995
K6Yb3P5S20,N/A,2.6,N/A,N/A
In0.5Al0.5P,N/A,2.3,N/A,N/A
GeP,mp-1095275,0.95,0.4889000000000001,-0.009709900654762293
Nd2Sn3Se9,N/A,0.5,N/A,N/A
TlInSe2,mp-22232,1.07,0.7351000000000001,-0.6729150770312486
KBiS2,mp-1223443,0.92,1.4158000000000004,-1.049449788062498
SmCuSeO,mp-9194,2.6,1.2864999999999993,-2.2354485949609373
Cs2CuP3S9,N/A,2.4,N/A,N/A
Ba2GaAsSe5,mp-1195309,1.39,1.8702999999999999,-1.4389959818576388
Ta0.67Zr1.33O1.89N1.63,N/A,2.48,N/A,N/A
CsDy9Cd4Se18,N/A,1.99,N/A,N/A
InSb0.9As0.1,N/A,0.27,N/A,N/A
AlN,mp-661,6.2,4.0467,-1.6796721718749996
NdAs,mp-2602,1.04,0.0,-1.7811745199999969
AgInCd2Te3,N/A,0.47,N/A,N/A
In0.93As0.93Cd0.07Te0.07,N/A,0.68,N/A,N/A
SiTe2,mp-2755,2.18,0.0,0.048259371666664684
GeS2,mp-572892,3.6,2.2648,-0.6627211947916661
Ga0.01Sb0.01Cd0.99Te0.99,N/A,1.35,N/A,N/A
Mg5B3O9F,mp-560026,5.63,5.118399999999999,-3.100724285
Al2Te3,mp-29502,2.5,1.7992000000000004,-0.5590248137499998
KAlGeS4,N/A,3.5,N/A,N/A
CsCeCdSe3,mp-574426,2.4,0.01839999999999975,-1.56896795278107
P4Ru,mp-27173,0.64,1.2586000000000013,-0.5147035367142848
TcSe2,N/A,0.88,N/A,N/A
InN,mp-22205,2.05,0.0,-0.11770066687499892
LaSi2,mp-2062,0.19,0.0,-0.7082368199999985
Ge0.06Si0.94,N/A,1.06,N/A,N/A
KSb5S8,mp-15559,1.67,1.3375,-0.46007861901785574
Pb0.97Se0.97Sn0.03Se0.03,N/A,0.29,N/A,N/A
Hg0.6Cd0.4Se,N/A,0.95,N/A,N/A
BaLa2In2Se7,N/A,1.66,N/A,N/A
RbSbS2,mp-10621,1.96,1.9492999999999998,-0.9648460499999976
Ga0.75P0.75Zn0.25Se0.25,N/A,2.18,N/A,N/A
La2ZrS5,mp-1198687,2.01,1.1334999999999997,-2.291879551562502
MgGeN2,mp-7798,4.4,2.6358,-0.7609367862499994
Bi2Te2.97Se0.03,N/A,0.15,N/A,N/A
Ba2ThCu2Se5,mp-1078405,1.75,0.7546000000000004,-1.6714566341718744
BaReH9,mp-28911,3.44,3.8349,-0.4183831385227221
Hg3Bi2(TeCl4)2,mp-1192395,2.8,3.0056000000000003,-1.1139699547222266
Ta1.33Zr0.67O0.12N3.03,N/A,1.71,N/A,N/A
ZnSnAs2,mp-5190,0.74,0.0,-0.1867147650000005
Bi2O3,mp-23262,2.85,2.1944999999999997,-1.658963656500002
Pb0.8Ge0.2Te,N/A,0.4,N/A,N/A
Pb0.92Sn0.08Te,N/A,0.16,N/A,N/A
BiTeNO6,mp-1195032,3.62,2.8005,-1.3206748399074075
MnSi,mp-1431,0.6,0.0,-0.36073170099137997
K2PdSe10,mp-505138,1.48,1.1765,-0.7569747819567326
CsCuSb2S4,N/A,1.7,N/A,N/A
Li6Fe2Te8O22,N/A,1.98,N/A,N/A
CsAg2TeS6,N/A,2.04,N/A,N/A
KV4Ag11O16,mp-553910,2.0,0.8009000000000002,-1.3254572554869783
Ce2Se3,mp-32578,1.75,0.0,-2.1007417851562478
As2Os,mp-2455,0.9,0.6646999999999998,-0.30389278500000216
La2MnNiO6,mp-1188812,1.4,0.0,-2.825923718793104
GaAs0.7P0.3,N/A,1.8,N/A,N/A
Li3PS4,mp-985583,3.68,2.8091,-1.0760115992782735
Sr(NdS2)2,mp-37108,2.45,2.1031999999999997,-2.388871474464285
Hg0.796Cd0.204Te,N/A,0.06,N/A,N/A
Ba2GdGaSe5,mp-1190156,1.87,1.3594000000000002,-1.9142025876909718
Ga2HgS4,mp-4809,2.84,1.5714,-0.8260695153571456
TlCr5S3Se5,N/A,0.8,N/A,N/A
Pb0.7Ge0.3Te,N/A,0.48,N/A,N/A
HgSe,mp-1018722,0.12,1.0432000000000001,-0.23692071328125053
CdI2,mp-570437,3.8,2.3382,-0.8608477351111099
GeAs,mp-9548,1.01,0.5112999999999999,-0.06029458458333418
Li3Bi,mp-23222,0.7,0.34289999999999976,-0.5419084449999994
Eu(InS2)2,mp-1105168,1.5,0.0,-1.2833893840476196
Rb3Sb2Br9,mp-1194576,2.48,2.149,-1.5625099191071423
SnO2,mp-856,3.6,0.6519000000000004,-1.8877848549999996
LaS1.86Se0.14,N/A,2.5,N/A,N/A
Ag2GeTe3,N/A,0.25,N/A,N/A
Dy4Te3S4,mp-1095296,1.43,1.3965999999999994,-1.9734439992045467
Ca2CdAs2,mp-1095180,0.95,0.8529999999999998,-0.9200470659999993
Bi2Te0.9Se2.1,N/A,0.28,N/A,N/A
TlAsS2,mp-4988,2.15,1.677,-0.5108456258333338
P2Se3,N/A,2.4,N/A,N/A
Ga0.8Al0.2P,N/A,2.3,N/A,N/A
H6PtI6O20,N/A,2.4,N/A,N/A
Li2In2SiS6,mp-1191903,3.61,2.4279999999999995,-1.1310215781818171
HoN,mp-883,1.79,0.08749999999999991,-2.0596644168749982
SnCl2,mp-29179,3.9,3.1002,-1.055039141666666
CsInGeS4,N/A,2.1,N/A,N/A
Ba5(Ga2Se5)2,mp-1228123,2.2,2.0136000000000003,-1.6149102833388156
KSbSe2,mp-9576,1.37,1.1298000000000001,-0.8151912723437498
In0.3Ga0.7P,N/A,2.2,N/A,N/A
Rb2Cu2Sn2Se6,N/A,1.04,N/A,N/A
RhSe3,N/A,0.7,N/A,N/A
InSb0.6As0.4,N/A,0.13,N/A,N/A
CdBr2,mp-568722,4.47,2.8551,-1.127471091666666
CsLu7Se11,mp-1203743,1.78,1.5104999999999997,-2.1054577559001637
Pb0.999Se0.999Sn0.001Se0.001,N/A,0.24,N/A,N/A
Cs3W3PO13,N/A,3.27,N/A,N/A
Lu2O3,mp-1427,5.5,4.021100000000001,-4.069780353166664
SrZrS3,mp-558760,1.0,0.5511999999999997,-2.083627635000002
RbAg2SbS4,mp-17756,2.3,0.6177999999999999,-0.6328239717708305
Cd4Sb3,N/A,1.25,N/A,N/A
LiB3,mp-1222413,2.0,0.09189999999999987,-0.28552933854166707
SbTeI,mp-28051,1.25,0.8429000000000002,-0.5123836205555582
K2ZnTe2,mp-12535,3.0,2.0537,-1.0357802345666662
AgSbTe2,mp-12360,0.35,0.0,-0.29143718124999873
B2Mo(PbO2)6,mp-1196917,2.9,2.4454000000000002,-1.9710348153968225
Eu3P2,N/A,1.2,N/A,N/A
Zn0.2Ba2B2S5.2,N/A,3.54,N/A,N/A
AgGaGe3Se8,N/A,2.17,N/A,N/A
AlCuS2,mp-4979,3.5,1.6756000000000002,-0.9626519264062487
Ba3Dy2(PS4)4,mp-560798,3.28,2.3736000000000006,-1.4910984704761894
Zn2InCuSe4,mp-1215816,1.1,0.24250000000000016,-0.8028014945052084
PdSe,mp-21165,0.2,0.0,-0.39195878328125033
Se0.5Te0.5,N/A,1.0,N/A,N/A
BiSbTe3,mp-1227340,0.19,0.21329999999999938,-0.4416057879999983
Cu0.05Ga1.95S2.95,N/A,2.7,N/A,N/A
Pr2Ge2Se7,N/A,1.32,N/A,N/A
CsSmCdSe3,mp-510062,2.45,2.0217,-1.589901297781071
InCuSe2,mp-22811,0.95,0.0,-0.5557744057812499
NaSbSe2,mp-1220879,1.2,0.6374999999999997,-0.7272434920312492
La2CoVO6,N/A,0.41,N/A,N/A
Tl4CuTeO6,mp-1191858,2.2,0.46979999999999933,-1.149301803333336
Sb5IO7,mp-556869,1.95,2.4997000000000003,-1.6368449898076922
HgBrCl,mp-1224070,3.4,2.5934999999999997,-0.9425675050000034
RbGaSnSe4,mp-1209628,1.88,1.3780999999999999,-0.9905953270535716
Na3MoO4F,mp-1194849,4.77,4.5355,-2.3217822782375475
YMoO4F,mp-555913,3.78,3.5035,-2.9731102728571415
Ba(BO2)2,mp-540659,6.2,4.522399999999999,-3.094466466904759
Na3Sb,mp-7956,1.17,0.39460000000000006,-0.5695521887500004
TaGaSe2,N/A,2.15,N/A,N/A
CdCu2SnS4,mp-1078292,1.37,0.0,-0.6545832456249991
KBr,mp-23251,7.6,4.3224,-2.040195321875
ZnAs2,mp-7262,0.93,0.22409999999999997,-0.14899074958333358
PrTe1.9,N/A,1.0,N/A,N/A
Hg3Bi2(SCl4)2,mp-1104411,3.26,2.7814,-1.1064435108333346
PbI2,mp-567503,3.01,2.4455,-0.9556307083333303
InAgTe2,mp-22386,0.96,0.06499999999999995,-0.3761139775000011
TlGaS2,mp-4016,3.4,1.7885,-0.884232564895834
FeSi2,mp-1714,0.85,0.6966000000000001,-0.39563509333333374
Ba2InSmTe5,N/A,1.36,N/A,N/A
SmB6,mp-6996,3.5,0.0,-0.5186441035714283
Ga0.99In0.01As,N/A,1.4,N/A,N/A
Rb2Sn3(SbS5)2,mp-1194540,2.33,1.8255,-0.848857470588234
BiBrO,mp-23072,2.92,2.2251,-1.5985196225000031
Mn11Si19,mp-567968,0.66,0.8562999999999992,-0.2782574084854673
HgTe,mp-2730,0.19,0.0,-0.19013660875000227
Ba2GaSe4,mp-1195574,1.63,1.0042,-1.6999139908035719
Mg2Ge,mp-408,1.67,0.16890000000000027,-0.34389672666666726
Rb3Al3Ge7Se20,N/A,2.4,N/A,N/A
SrTaNO2,mp-2583419,1.99,1.1168000000000005,-2.7486717074666673
CoSbS,mp-5881,0.5,0.36739999999999995,-0.37020566177083464
Pb0.99TeTl0.01,N/A,0.59,N/A,N/A
CsMn4In5Te12,N/A,1.48,N/A,N/A
K3Sm(AsS4)2,mp-560964,2.2,1.6795000000000002,-1.1884497929821423
EuAl2O4,mp-1019732,2.74,0.09919999999999973,-3.4106681425000005
Cr2O3,mp-19399,3.4,0.0,-2.3640061384999997
LiBr,mp-976280,7.95,4.9350000000000005,-1.8171358458333335
K3Ga3Ge7Se20,N/A,2.23,N/A,N/A
Yb4Sb2S11.25,N/A,1.71,N/A,N/A
Ca2Si,mp-1009733,1.9,0.5509000000000004,-0.5342576716666679
BPb7Br3O7,mp-1201413,2.62,1.9254000000000002,-1.692796271898147
ReSe2,mp-541582,0.99,1.1434000000000002,-0.46316581770832954
DyTe1.45,N/A,0.6,N/A,N/A
CsBr,mp-22906,6.8,4.2392,-2.07267809
SbI3,mp-23281,2.41,2.1446000000000005,-0.6814369887499998
YbSb,N/A,1.0,N/A,N/A
Cu0.05Ga1.95Se2.95,N/A,1.96,N/A,N/A
Nd1.33Lu0.67S3,N/A,1.5,N/A,N/A
LaIn3S6,N/A,1.03,N/A,N/A
CsGaSn2Se6,N/A,1.87,N/A,N/A
CsKP2Se8,N/A,2.36,N/A,N/A
MgO,mp-1265,7.83,4.4292,-2.9992433999999992
SnTe,mp-1883,0.33,0.04190000000000005,-0.26504988000000296
P2Ir,mp-10155,1.1,0.6331000000000007,-0.8183616969841268
Cu0.5Ga1.5S2.5,N/A,2.43,N/A,N/A
YbGa2S4,N/A,2.3,N/A,N/A
SmCuSe2,mp-11793,2.1,0.8167999999999997,-1.4443759332812505
InSb0.8As0.2,N/A,0.21,N/A,N/A
Pb0.85Se0.85Sn0.15Te0.15,N/A,0.18,N/A,N/A
Cd4P2Cl3,mp-29746,2.17,1.3836,-0.7342025553835975
SrCrO4,mp-510607,2.45,2.6186000000000003,-2.4459458470833404
RbBiSe2,N/A,0.72,N/A,N/A
Ag2S,mp-31053,0.87,0.0,-0.22268068548611097
Ag3AsS3,mp-561620,2.18,1.6277999999999997,-0.1596350126339254
Ag3SbS3,mp-555269,1.75,1.5142000000000002,-0.206377109062497
GaAgSe2,mp-5518,1.83,0.24919999999999987,-0.6880345922135409
AgSbSe2,mp-1229000,0.85,0.0,-0.4053052565885409
AlP,mp-1550,2.43,1.6294000000000004,-0.737248783988095
As2S3,mp-1189572,2.0,1.9873,-0.15593288218749848
CdAs2,mp-471,1.14,0.13319999999999999,-0.06123098999999973
Cd(GaSe2)2,mp-3772,2.43,1.3487,-0.8853534391964288
CdP2,mp-913,2.02,1.4556,-0.181319395734126
CdSb,mp-1321,0.59,0.020099999999999785,-0.0958698493749992
CdTe,mp-406,1.65,0.5846000000000002,-0.5607400050000031
FeCuS2,mp-3497,0.5,0.0,-0.51395774625
GaCuSe2,mp-4840,1.6,0.03980000000000006,-0.5736508945312497
Dy2S3,mp-1270,3.0,0.5937999999999999,-2.3791560301874997
GaS,mp-2507,2.52,2.0036,-0.7637378176562493
GaTe,mp-542812,1.69,1.0066000000000002,-0.4429932008333329
In4Te3,mp-617281,0.5,0.12239999999999984,-0.39453985964285365
InSe,mp-20485,1.27,0.4590000000000001,-0.676726512031248
KI,mp-22898,6.08,3.8513,-1.6953124236249995
Mg3As2,mp-1990,2.55,1.431,-0.78755513925
NaBiSe2,mp-1221101,0.32,1.0922999999999998,-0.9754612565167027
PbS,mp-21276,0.3,0.46669999999999945,-0.7835693762499978
TePb,mp-19717,0.34,0.8063000000000002,-0.5038298999999995
RbI,mp-22903,6.05,3.7765,-1.7211735837500006
Sb2S3,mp-2809,1.63,1.2866,-0.2866659121874989
SnS,mp-2231,1.1,0.9047999999999998,-0.4716001876562501
SnSe,mp-691,0.91,0.5159000000000002,-0.45354630828125053
Tl2Te3,mp-29711,0.51,0.6388999999999996,-0.4442273073333354
TlCl,mp-571079,3.21,2.5181,-1.3258213141666677
TlSbS2,mp-28230,1.88,0.0,-0.5847535498958338
Zn3As2,mp-680580,0.86,0.16469999999999985,-0.14362237106250042
ZnGeAs2,mp-4008,1.16,0.0011999999999998678,-0.15961353374999998
ZnO,mp-2133,3.31,0.7227,-1.647445170000001
ZnS,mp-554820,3.85,2.0195,-0.9622174221205354
Bi4PdSe4O12,N/A,2.06,N/A,N/A
Cd3In2S2Te4,N/A,1.23,N/A,N/A
SbSI,mp-23041,1.99,1.6276000000000002,-0.6224157683333296
Pb0.8Se0.8Ge0.2Te0.2,N/A,0.36,N/A,N/A
Ag1.75InSb5.75Se11,N/A,0.94,N/A,N/A
K2Dy2Ti3O10,N/A,3.38,N/A,N/A
ZrS2,mp-1186,2.75,1.0418,-1.8476674483333326
CaTe,mp-1519,4.07,1.5535,-1.9175140150000018
GeI2,mp-27922,1.5,2.0217,-0.628757047222222
Ir0.67S2,N/A,2.0,N/A,N/A
Mn(PbO2)2,mp-21823,1.5,0.4894999999999996,-1.6494790855972883
GaSe,mp-568263,2.05,1.2121,-0.6900187082812508
SrZnSO,N/A,3.1,N/A,N/A
Ge0.653Si0.347,N/A,1.91,N/A,N/A
InAs,mp-20305,0.46,0.0,-0.3885098062499992
Ta4Cu2O11,mp-676563,2.6,1.2731,-2.592217092019613
K4GeS4,mp-556627,0.8,2.7133,-1.2734856412777782
Ge0.6Si0.4,N/A,0.9,N/A,N/A
AsI3,mp-23218,2.54,2.2375000000000003,-0.5166278381249985
Mg2Sn,mp-2343,0.28,0.0,-0.1670987783333319
CsK2Sb,mp-581024,1.0,0.8633999999999997,-0.558875109375002
Ho2(MoO4)3,mp-1212381,1.68,3.5751,-2.6535868147058816
Li4HgGe2S7,N/A,2.75,N/A,N/A
BaGa2GeS6,mp-1227983,3.23,2.7662999999999998,-1.2250079314999993
InP,mp-20351,1.27,0.4546000000000001,-0.3582735989880952
TlBr,mp-568949,3.05,2.1678,-1.0309185724999992
SiB3,mp-569128,2.0,1.4080000000000004,-0.044149920937500475
TePb,mp-19717,0.62,0.8063000000000002,-0.5038298999999995
RbI,mp-22903,6.1,3.7765,-1.7211735837500006
KSbS2,mp-11703,1.8,1.601,-0.8523867423437501
SbSeBr,mp-1209072,1.84,1.4377999999999997,-0.8043009266145843
As2Se3,mp-909,1.77,1.4466,-0.13948285393749985
CoSb2,mp-755,0.17,0.0,-0.10082353333333553
Hg0.8Cd0.2Se,N/A,0.95,N/A,N/A
Cu2Te,mp-1861,1.02,0.0,0.08165582833333455
LiMgN,mp-37906,3.2,2.2706999999999997,-0.8117910368055554
RbCuSb2S4,N/A,1.6,N/A,N/A
Sb2O3,mp-2136,3.2,2.2239000000000004,-1.4545398395000007
ZnTe,mp-2176,2.24,1.0732999999999997,-0.6841630333333328
TePb,mp-19717,0.31,0.8063000000000002,-0.5038298999999995
NaBiS2,mp-1221125,0.4,1.4468999999999994,-1.0003154465948274
Hg6P6In2Cl9,N/A,3.13,N/A,N/A
GaS,mp-2507,2.62,2.0036,-0.7637378176562493
Sn3WO6,mp-556980,2.49,2.1614999999999998,-1.8554821147499994
InSb,mp-20012,0.26,0.0,-0.23802167499999882