Formula,Material ID,Experimental Band Gap (eV),Band Gap (eV),Formation Energy (eV/atom)
ZnSe,mp-1190,2.83,1.1663,-0.951561031171876
GaAs,mp-2534,1.44,0.1861000000000001,-0.4462770562500004
CdSb,mp-1321,0.47,0.0200999999999997,-0.0958698493749992
CuBr,mp-22913,3.07,0.4870999999999998,-0.559571324999999
GaAgSe2,mp-5518,1.66,0.2491999999999998,-0.6880345922135409
Cu3Hg2(Te3O8)2,mp-1194777,2.56,0.2151999999999998,-1.2620595901851843
Cs2TeI6,mp-540957,1.5,1.3877,-1.1062142028863329
Ag2GeS3,mp-9900,1.98,0.4646000000000003,-0.466512995138889
AgSbS2,mp-3922,1.88,1.3716000000000004,-0.2496304714062489
Ta7Cu3O19,mp-28752,2.47,1.1738999999999995,-2.654420742028735
GaP,mp-2490,2.77,1.6039,-0.5089161339880963
PbSe,mp-2201,0.14,0.4256999999999999,-0.6725727545312452
In4Te3,mp-617281,0.42,0.1223999999999998,-0.3945398596428536
Ag3AsSe3,mp-662599,1.86,0.8906000000000001,-0.3023674824330352
Tl2Hg3S4,mp-1188364,2.05,1.5797,-0.4245259082407508
KBi3S5,mp-1223584,1.21,1.4227,-0.836971433861113
Gd(CuS)3,mp-1226384,1.62,0.9673000000000008,-0.9917023304910718
Tm(CuTe)3,mp-2514049,0.14,0.3903000000000007,-0.6240276321428594
LiBi3(ClO2)2,mp-754206,3.35,2.7135,-1.8209047308333333
As2Se3,mp-909,1.81,1.4466,-0.1394828539374998
ZnAs2,mp-7262,0.9,0.2240999999999999,-0.1489907495833335
In2O3,mp-22598,2.8,0.9288999999999996,-1.8634906622499985
SiGe,mp-1219182,0.88,0.6059999999999999,0.0162034274999989
MnP4,mp-569522,0.28,0.4786000000000001,-0.359478627967159
LiIn(IO3)4,mp-973966,4.27,2.6987,-1.156085626666666
GaAs,mp-2534,1.42,0.1861000000000001,-0.4462770562500004
ZnAs2,mp-7262,1.2,0.2240999999999999,-0.1489907495833335
FeSi2,mp-1714,1.0,0.6966000000000001,-0.3956350933333337
K10Zn4Sn4S17,mp-1224229,3.2,2.1803999999999997,-1.1835766015714275
AlSb,mp-2624,1.7,1.2255000000000005,-0.2529754850000003
AlSb,mp-2624,2.22,1.2255000000000005,-0.2529754850000003
AlSb,mp-2624,1.49,1.2255000000000005,-0.2529754850000003
AsSeI,mp-505373,1.76,1.2345000000000002,-0.4681290949479155
ZnSb,mp-753,1.09,0.0282,-0.0614477549999996
AlAgTe2,mp-14092,1.9,1.0469000000000004,-0.4392614887500023
CeTl2P2S7,mp-638100,2.4,0.2328999999999998,-1.0181447000793646
As2S3,mp-1189572,2.45,1.9873,-0.1559328821874984
Ho2O3,mp-812,5.42,3.9458,-3.960604681249998
Ba2GaSbTe5,mp-1200935,1.66,0.9728,-1.1720431734259256
PbSe,mp-2201,0.26,0.4256999999999999,-0.6725727545312452
PbS,mp-21276,0.6,0.4666999999999994,-0.7835693762499978
PbI2,mp-567503,2.54,2.4455,-0.9556307083333304
GaAs,mp-2534,1.48,0.1861000000000001,-0.4462770562500004
Ba3Tb2(PS4)4,mp-554264,3.37,2.3711,-1.4943952465761905
KSiBiS4,mp-866651,2.25,2.0549,-1.0805384192500045
K3Ta2AsS11,mp-1211748,2.21,1.8918,-1.149100428024509
Eu(GaS2)2,mp-1181942,2.25,0.2343000000000001,-1.3381703385714283
HgSe,mp-1018722,0.24,1.0432,-0.2369207132812505
Rb3Sb2I9,mp-1209693,1.94,1.9237,-1.1468130066071431
ZnSiP2,mp-4763,2.07,1.3641000000000003,-0.3916568414880963
In6Se7,mp-1192955,0.72,0.4608000000000007,-0.6397181044951922
Cu2Se,mp-1097707,1.29,0.0518999999999998,-0.0756075761458324
LiGa(GeSe3)2,mp-1222398,2.64,1.5103999999999995,-0.7912292119895831
CsGaS3,mp-562726,3.0,2.4313,-0.9883059401875016
Ba2ErInSe5,mp-1188122,2.29,1.1854,-1.8753344098206015
BiSCl,mp-23318,1.89,1.9636000000000005,-1.029267297499998
Na2TeS3,mp-1190141,2.35,1.7828,-0.910800604904214
CdSnAs2,mp-3829,0.4,0.0062999999999999,-0.1169992175
CdGeAs2,mp-4953,0.85,0.0085000000000001,-0.0763771949999991
CdGeAs2,mp-4953,0.72,0.0085000000000001,-0.0763771949999991
In2HgTe4,mp-19765,0.86,0.5295000000000001,-0.4048025396428564
As2Pt,mp-2513,0.8,0.0785,-0.6073781699999993
CdSiAs2,mp-3078,1.52,0.4001999999999999,-0.1066761587500009
Ba2NaCu3S5,mp-1191092,0.45,0.4504000000000001,-1.2184683617163008
TlSe,mp-1836,0.65,0.1979999999999999,-0.3731531157812497
B6As,mp-624,1.51,2.6454000000000004,-0.2091889410714285
MgSiN2,mp-3677,4.05,3.9662000000000006,-1.3460087593750003
CoSb3,mp-1317,0.5,0.1633000000000004,-0.1478840750000003
PPdSe,mp-3123,0.15,0.9677000000000002,-0.4450849681795645
Zn(InSe2)2,mp-22607,1.82,0.9929,-0.8611685975297608
MoO3,mp-715584,3.66,1.9098,-1.9214148340624997
BAs,mp-10044,1.45,1.2036999999999995,-0.0416371147916656
Cd(InSe2)2,mp-22304,1.45,0.9564,-0.8343265846726184
Cu2SnSe3,mp-1200177,0.83,0.0857999999999998,-0.3417845012812464
BaSe,mp-1253,3.6,1.9488,-2.283761781171875
ZnI2,mp-27161,4.53,2.9076000000000004,-0.905940762291666
TiS3,mp-9920,0.9,0.2261000000000006,-1.3410208639583328
Ce10Se14O,mp-1198305,1.93,0.0092999999999996,-2.217895350312497
CsAgSb4S7,mp-554408,2.04,1.6887,-0.6542815279862949
TlSe,mp-1836,0.79,0.1979999999999999,-0.3731531157812497
Ca3Sb2,mp-1013546,1.4,0.0853999999999999,-0.6723631780000009
CuPS3,mp-1105187,2.2,1.1555,-0.3006717657827394
CeMoO4F,mp-1192442,2.52,0.1015000000000005,-2.9251683671428563
Nd4(GeS4)3,mp-560086,2.62,1.9952999999999992,-1.5571338547368423
Ba2GaSbSe5,mp-1203387,2.51,1.8067,-1.4770865288020838
CdSiP2,mp-4666,2.25,1.4257,-0.2725821789880935
ZnAs2,mp-7262,1.3,0.2240999999999999,-0.1489907495833335
Na(GeP)3,mp-1104707,2.06,1.0854999999999997,-0.2113913862755103
K2Zn(SnSe3)2,mp-1195072,1.71,1.5684000000000002,-0.9805493510056824
AlAgTe2,mp-14092,1.8,1.0469000000000004,-0.4392614887500023
NaI,mp-23268,6.0,3.5687,-1.475365545689655
BiSI,mp-23514,1.56,1.8669,-0.7283613416666661
PbCl2,mp-23291,3.82,3.7939,-1.308738062500003
Th2Se5,mp-2392,0.37,0.5162000000000004,-1.88111387703125
KAg2SbS4,mp-9490,2.2,0.5695999999999999,-0.4711522929262219
Si(Bi3O5)4,mp-23492,3.2,2.347799999999999,-1.8084032248484867
Ga2(TeO3)3,mp-1181313,4.15,3.7831,-1.761193612678571
VZn2BiO6,mp-1105584,2.4,2.7248,-1.9899104339999991
Ag3AsSe3,mp-662599,2.1,0.8906000000000001,-0.3023674824330352
CsSbS2,mp-561639,2.8,1.7363999999999995,-0.8564455114062532
GaAs,mp-2534,1.4,0.1861000000000001,-0.4462770562500004
Pr10Se14O,mp-560835,1.89,1.4217999999999995,-2.2774861383791656
GaCuSe2,mp-4840,1.68,0.0398,-0.5736508945312497
AlSb,mp-2624,1.8,1.2255000000000005,-0.2529754850000003
Sn2SbS2I3,mp-1219046,1.5,1.0658,-0.6482749518749995
Ga2Se2O7,mp-1196063,4.61,3.4975,-1.398936280738636
Cu2GeS3,mp-15252,0.53,0.1110999999999995,-0.5728115929166648
ErN,mp-19830,2.4,0.1242999999999998,-2.0996089160416673
NaI,mp-23268,5.93,3.5687,-1.475365545689655
SrSeO4,mp-4092,4.75,3.5358,-1.8601534723437512
K2Th(CuS2)2,mp-555425,2.17,1.1260000000000003,-1.4402712038333323
As2Se3,mp-909,1.8,1.4466,-0.1394828539374998
CdP4,mp-7904,1.0,0.6551,-0.1207425323809516
NiS2,mp-1180046,0.64,0.2404000000000001,-0.5908853016666663
K4Nb2S11,mp-15148,2.35,1.3942,-1.2162526068529398
Te2Mo,mp-602,1.2,0.8632999999999997,-0.3073717666666671
Ga2Se3,mp-1340,2.05,1.0436,-0.7008674644374991
TlSe,mp-1836,0.74,0.1979999999999999,-0.3731531157812497
Sn3Ir2Se3,mp-1194504,0.43,0.4375999999999997,-0.5366352543359412
Dy4GaSbS9,mp-1196712,2.58,2.0612,-1.835451649777776
CdSb,mp-1321,0.48,0.0200999999999997,-0.0958698493749992
As2S3,mp-1189572,2.5,1.9873,-0.1559328821874984
CaO,mp-2605,7.0,3.630100000000001,-3.2301091375000013
CsCdBO3,mp-1191636,2.58,1.6462,-2.200421766053639
AsRuS,mp-1214786,1.2,0.9146,-0.592539325937499
Cd2InCuTe4,mp-1227025,0.85,0.1765999999999996,-0.4526646050000025
GeAs2,mp-17524,1.1,0.7195999999999998,-0.0624238824999991
KBiSe2,mp-36539,0.61,0.8130999999999999,-0.9184257667343748
AgSbS2,mp-3922,1.99,1.3716000000000004,-0.2496304714062489
P2Pd,mp-28266,0.65,0.3418999999999998,-0.4877190653174589
Ba4Ga4SnSe12,mp-1195344,2.16,1.3292000000000002,-1.4452905256249995
Na2In2GeSe6,mp-1190429,2.47,1.3672000000000002,-0.9378154800140404
Ba2In2S5,mp-22841,2.47,1.9866,-1.5818637082870337
K3Cr2(PS4)3,mp-559251,1.35,0.9572,-0.9385079606589272
As2S3,mp-1189572,2.56,1.9873,-0.1559328821874984
Ag2Mo(I2O7)2,mp-1203404,3.06,1.9610999999999996,-0.963632561349206
HoN,mp-883,1.88,0.0874999999999999,-2.0596644168749982
CdSnAs2,mp-3829,0.5,0.0062999999999999,-0.1169992175
GaP,mp-2490,2.75,1.6039,-0.5089161339880963
Cs2Sn3(SbS5)2,mp-1195304,2.34,1.8595,-0.8587243776064907
Rb3Sb,mp-16319,1.0,0.0878000000000001,-0.3956748793750004
LiIO3,mp-23384,4.37,3.7255,-1.393459491666666
CdIClO3,mp-1191962,4.3,3.3467,-1.1400083808333328
AlSb,mp-2624,1.6,1.2255000000000005,-0.2529754850000003
NaSc(SeO3)2,mp-1194561,5.5,3.8413,-2.1409236221066807
Te2Mo,mp-602,1.1,0.8632999999999997,-0.3073717666666671
As2Se3,mp-909,1.73,1.4466,-0.1394828539374998
CdP4,mp-7904,0.91,0.6551,-0.1207425323809516
ZnSe,mp-1190,2.7,1.1663,-0.951561031171876
PbI2,mp-567503,2.56,2.4455,-0.9556307083333304
InAgTe2,mp-22386,0.93,0.0649999999999999,-0.3761139775000011
Sm2ZrSe5,mp-1198078,1.41,0.8425000000000002,-1.966999839414061
Ba5(GaSe4)2,mp-1204617,2.51,1.8701,-1.83285764225
Cu2Se,mp-1097707,1.3,0.0518999999999998,-0.0756075761458324
In5CuS8,mp-674514,1.34,0.1614000000000004,-0.6991201857142845
BaGa2GeSe6,mp-1227970,2.81,1.9186,-1.1116526904062505
GaCuSe2,mp-4840,1.36,0.0398,-0.5736508945312497
GaP,mp-2490,2.78,1.6039,-0.5089161339880963
LiIO3,mp-23384,4.0,3.7255,-1.393459491666666
SrTiO3,mp-4651,4.1,1.8488,-3.4542551163333344
KAg2SbS3,mp-1192667,2.1,1.6882999999999997,-0.537441497375994
RbSbS2,mp-10621,2.13,1.9493,-0.9648460499999976
Sr2SmTaO6,mp-1208761,3.38,3.7716,-3.542804982733333
CdSb,mp-1321,0.58,0.0200999999999997,-0.0958698493749992
BiSCl,mp-23318,1.93,1.9636000000000005,-1.029267297499998
GeAs,mp-9548,1.65,0.5112999999999999,-0.0602945845833341
Ba(GaS2)2,mp-849286,4.13,2.9073,-1.4611138246428583
SbPbIO2,mp-1219447,2.48,1.4366000000000003,-1.424115551
As2S3,mp-1189572,2.36,1.9873,-0.1559328821874984
Zn(GaSe2)2,mp-15776,1.72,1.4000999999999997,-0.9152755777678564
B3Pb10Br3O13,mp-1229254,3.25,2.4353999999999996,-1.8707664832758617
AgBi(PS3)2,mp-556434,1.7,1.1837999999999995,-0.5603158545952382
GaCuSe2,mp-4840,1.7,0.0398,-0.5736508945312497
K2Cd2Te3,mp-571637,1.93,1.3224,-0.9044758605238084
CdSiAs2,mp-3078,1.47,0.4001999999999999,-0.1066761587500009
Sm2Mn3(SbS3)4,mp-1192255,1.5,0.1398000000000001,-1.0463632901806237
RbPSe6,mp-17945,2.18,1.8608,-0.6950755164006699
PbI2,mp-567503,2.32,2.4455,-0.9556307083333304
CsBi3Se5,mp-567928,0.43,0.9987999999999996,-0.8620706795971008
GaAgSe2,mp-5518,1.8,0.2491999999999998,-0.6880345922135409
Co2Te3O8,mp-18855,3.6,2.4752,-1.4718466315384615
As2S3,mp-1189572,2.64,1.9873,-0.1559328821874984
Na4Mg(GeSe3)2,mp-1103730,2.53,1.8221,-1.0906741180445951
AgI,mp-580941,2.82,1.3759,-0.4930830308333322
TaNO,mp-4165,2.4,1.9337999999999995,-2.262669408277778
Eu(LuSe2)2,mp-645692,1.7,0.1428000000000002,-2.225436789583333
GaP,mp-2490,2.74,1.6039,-0.5089161339880963
As2S3,mp-1189572,2.48,1.9873,-0.1559328821874984
Na4Mg(SiSe3)2,mp-1103351,2.85,2.7632000000000003,-1.16533005342921
Sr(LaS2)2,mp-34141,2.85,2.2358,-2.4914909694642864
SrTiO3,mp-4651,3.0,1.8488,-3.4542551163333344
Eu(SbS2)2,mp-1194437,1.2,0.1394999999999999,-1.0357625067857137
Sb2Te3,mp-1201,0.21,0.1314000000000001,-0.3831998460000022
TlSe,mp-1836,0.67,0.1979999999999999,-0.3731531157812497
Ba3Ta2ZnO9,mp-1214475,4.32,3.3488,-3.2135429088111107
CuBS2,mp-12954,3.61,1.7424999999999995,-0.5917289910416663
Ta2O5,mp-10390,4.2,0.2637,-3.3270216671428585
ZnCu2GeS4,mp-6408,2.1,0.3693999999999997,-0.6981088393749997
Zn3P2,mp-2071,1.15,0.3144,-0.2566268456904765
Ag2SnSe3,mp-1096812,0.81,0.0586000000000002,-0.473000473810762
CsSmZnSe3,mp-505709,2.43,2.0424,-1.6442819411144045
NaI,mp-23268,5.89,3.5687,-1.475365545689655
TlSe,mp-1836,0.75,0.1979999999999999,-0.3731531157812497
K3NaSn3Se8,mp-628185,2.2,1.4211000000000005,-1.0196961934586208
Rb2Ti(CuS2)2,mp-7129,2.19,1.4368000000000003,-1.2759685892592605
Sb2Os,mp-2695,0.3,0.3447000000000013,-0.0839943783333344
Ba3Gd2(PS4)4,mp-684036,3.41,1.4044,-1.4955072069428563
CoAsSe,mp-505511,0.2,0.3947000000000003,-0.3807655201041673
Sm4GaSbS9,mp-1199065,2.23,2.0006,-1.8393253721666665
ZnHg3(SCl2)2,mp-1105779,2.65,0.0392,-0.6292481787500019
BeO,mp-2542,10.39,7.463900000000001,-3.10070444375
CdGeAs2,mp-4953,0.56,0.0085000000000001,-0.0763771949999991
GeAs2,mp-17524,1.06,0.7195999999999998,-0.0624238824999991
SiAs,mp-1863,1.45,1.4518999999999995,-0.0720071150000005
In2Se3,mp-612740,1.18,0.9901999999999996,-0.6866874677708324
CdP4,mp-7904,0.99,0.6551,-0.1207425323809516
CdSnAs2,mp-3829,0.26,0.0062999999999999,-0.1169992175
Ag7AsS6,mp-15077,1.0,0.5009999999999999,-0.1253574979910711
In5AgS8,mp-36751,1.76,0.1034999999999994,-0.7027461991071411
KTeP2,mp-1188829,1.4,1.2093000000000005,-0.5346322361755949
CuBr,mp-22913,2.9,0.4870999999999998,-0.559571324999999
BaGa2GeSe6,mp-1227970,2.22,1.9186,-1.1116526904062505
CuBr,mp-22913,3.02,0.4870999999999998,-0.559571324999999
ZnSiAs2,mp-3595,2.12,0.8866,-0.1912955775
ZnSe,mp-1190,2.68,1.1663,-0.951561031171876
Cs4Zr3S14,mp-680246,2.35,1.4329000000000005,-1.460803963505747
CsSmZnSe3,mp-505709,2.63,2.0424,-1.6442819411144045
PSe,mp-28885,2.5,2.2421,-0.0904754022693445
Sb2Te3,mp-1201,0.28,0.1314000000000001,-0.3831998460000022
CdGeAs2,mp-4953,0.5,0.0085000000000001,-0.0763771949999991
Mn(SbSe2)2,mp-1210700,0.31,0.3928000000000002,-0.4954999465332496
LiMgBi,mp-570213,0.4,0.3587000000000002,-0.4132990027777762
CdGeP2,mp-3668,1.73,0.6455000000000002,-0.1508316327380949
CoSb3,mp-1317,0.49,0.1633000000000004,-0.1478840750000003
Ba12In4S19,mp-1229044,2.56,1.978,-1.877253377261904
Gd2O3,mp-504886,5.3,2.9411000000000005,-3.7546271655
LiInS2,mp-1188392,3.59,2.2212,-1.1272425393229175
Ga2(TeO3)3,mp-1181313,4.14,3.7831,-1.761193612678571
GaAs,mp-2534,1.53,0.1861000000000001,-0.4462770562500004
Ca3(BN2)2,mp-1227905,3.9,2.4714000000000005,-1.384212677962963
Eu(GaSe2)2,mp-1201775,2.16,0.0835999999999996,-1.2989818231250003
Na2Zn(GeSe3)2,mp-1190476,2.36,1.3476,-0.8725742951655562
In2Se3,mp-612740,1.42,0.9901999999999996,-0.6866874677708324
Er2Te3,mp-14643,0.9,0.0521000000000002,-1.644872913333336
SnBr2,mp-29862,3.5,2.5387,-0.9049908233333332
In2Se3,mp-612740,0.97,0.9901999999999996,-0.6866874677708324
TlSe,mp-1836,0.73,0.1979999999999999,-0.3731531157812497
LiBiS2,mp-1222404,0.11,1.4793000000000005,-0.9981624420833316
Cs2MgGe3Se8,mp-1195667,2.04,1.4687,-0.9834246223614532
BaLa2Te5O14,mp-559703,3.81,3.2283,-2.31820096810606
VO,mp-19184,0.3,0.9700999999999996,-2.088136401249999
NaLa2TaO6,mp-13019,4.5,3.9792,-3.502169340371265
MoO3,mp-715584,3.7,1.9098,-1.9214148340624997
Cs3Sb2Br9,mp-579560,2.3,1.9837,-1.5987775242118225
Sb2Te3,mp-1201,0.24,0.1314000000000001,-0.3831998460000022
PbSe,mp-2201,0.35,0.4256999999999999,-0.6725727545312452
CuP2,mp-927,1.51,0.8679000000000006,-0.156310461150794
NaCdAsS3,mp-1192203,2.93,1.9753,-0.8348807264798843
Zn3P2,mp-2071,1.2,0.3144,-0.2566268456904765
TlSe,mp-1836,1.3,0.1979999999999999,-0.3731531157812497
CdSnP2,mp-5213,1.4,0.2694999999999998,-0.0848958823214274
CdAs2,mp-471,1.04,0.1331999999999999,-0.0612309899999997
Gd2Te3,mp-1105966,0.74,0.1129999999999995,-1.6330171360000008
PbS,mp-21276,0.29,0.4666999999999994,-0.7835693762499978
Ag3AsSe3,mp-662599,2.07,0.8906000000000001,-0.3023674824330352
Ag2SnSe3,mp-1096812,0.7,0.0586000000000002,-0.473000473810762
GaAgO2,mp-11020,2.2,0.5832999999999999,-1.5802041210416655
In2HgS4,mp-22356,2.0,0.3467000000000002,-0.7311374701190471
Sr5V3O12F,mp-40674,4.5,3.7635,-3.1421707151190477
NaBr,mp-22916,7.5,4.0895,-1.8674453799999997
Ca2ScSbO6,mp-1189528,3.68,3.6318,-3.124920209
CdP4,mp-7904,0.9,0.6551,-0.1207425323809516
SnTe,mp-1883,0.36,0.0419,-0.2650498800000029
AgI,mp-580941,3.01,1.3759,-0.4930830308333322
Cd(InSe2)2,mp-22304,1.57,0.9564,-0.8343265846726184
FeP4,mp-570553,0.32,0.8049,-0.370041921214284
Ba2YGaSe5,mp-1106265,2.31,1.6616,-1.9070232199131936
CsInTe2,mp-1199743,2.16,1.3522000000000003,-0.9421610549137932
ZnGeN2,mp-2979,2.9,1.6955,-0.3598719362500002
PbCl2,mp-23291,4.1,3.7939,-1.308738062500003
Ba2GaS4,mp-1199702,2.55,1.8917,-1.7978759250000098
SnBr2,mp-29862,3.4,2.5387,-0.9049908233333332
K2Mn(SnSe3)2,mp-669410,2.0,0.8791,-0.9399147726357752
Ba(GaSe2)2,mp-7841,3.16,1.8578,-1.36306374919643
Eu(DySe2)2,mp-645690,1.8,0.1657000000000001,-2.2508127051785727
MoO3,mp-715584,3.75,1.9098,-1.9214148340624997
POsSe,mp-1101841,1.4,0.5156999999999998,-0.4074907485962313
Sb2Te3,mp-1201,0.22,0.1314000000000001,-0.3831998460000022
In6Se7,mp-1192955,0.64,0.4608000000000007,-0.6397181044951922
Zn(InSe2)2,mp-22607,2.0,0.9929,-0.8611685975297608
Te2Mo,mp-602,1.08,0.8632999999999997,-0.3073717666666671
EuIn2(GeIr)4,mp-1095411,0.26,0.1271000000000004,-0.4879100634848496
PbSe,mp-2201,0.31,0.4256999999999999,-0.6725727545312452
BiSI,mp-23514,1.58,1.8669,-0.7283613416666661
Ba8Sn4S15,mp-1195594,2.31,2.0554,-1.7315744646296285
VO2,mp-541404,0.65,0.2122000000000001,-2.5195996983333337
Cs2Sb,mp-1191118,0.62,0.2839,-0.566693007083335
BiIO,mp-22987,2.12,1.473,-1.3668964541666664
GeAs2,mp-17524,1.0,0.7195999999999998,-0.0624238824999991
BaSn2S5,mp-1202711,2.35,1.5453,-1.1445934543749994
CsYZnSe3,mp-574620,2.29,2.1117,-1.6464527302810703
GaGeTe,mp-8211,1.1,0.1672000000000002,-0.2964296116666673
BaO,mp-1342,4.8,2.0906,-2.82149134875
La2O3,mp-1968,5.4,3.8248,-3.740053148999997
Ga2Se3,mp-1340,1.86,1.0436,-0.7008674644374991
K2Cd3S4,mp-18101,2.75,1.7876,-1.008943850694444
Ba2NdInSe5,mp-1190093,2.2,1.0692000000000004,-1.876106498987268
SiAs,mp-1863,1.48,1.4518999999999995,-0.0720071150000005
CsSbSe2,mp-2969,1.7,1.1312,-0.9411761404606748
Er2O3,mp-679,5.42,3.9629,-3.988030907833334
GeP,mp-1095275,0.95,0.4889000000000001,-0.0097099006547622
Ba2GaAsSe5,mp-1195309,1.39,1.8703,-1.4389959818576388
CsCeCdSe3,mp-574426,2.4,0.0183999999999997,-1.56896795278107
KSb5S8,mp-15559,1.67,1.3375,-0.4600786190178557
RbSbS2,mp-10621,1.96,1.9493,-0.9648460499999976
La2ZrS5,mp-1198687,2.01,1.1334999999999995,-2.291879551562502
As2Os,mp-2455,0.9,0.6646999999999998,-0.3038927850000021
Ba2GdGaSe5,mp-1190156,1.87,1.3594000000000002,-1.914202587690972
HgSe,mp-1018722,0.12,1.0432,-0.2369207132812505
GeAs,mp-9548,1.01,0.5112999999999999,-0.0602945845833341
Li3Bi,mp-23222,0.7,0.3428999999999997,-0.5419084449999994
Ca2CdAs2,mp-1095180,0.95,0.8529999999999998,-0.9200470659999992
HoN,mp-883,1.79,0.0874999999999999,-2.0596644168749982
KSbSe2,mp-9576,1.37,1.1298,-0.8151912723437498
CsLu7Se11,mp-1203743,1.78,1.5104999999999995,-2.1054577559001637
LiB3,mp-1222413,2.0,0.0918999999999998,-0.285529338541667
B2Mo(PbO2)6,mp-1196917,2.9,2.4454,-1.9710348153968225
Zn2InCuSe4,mp-1215816,1.1,0.2425000000000001,-0.8028014945052084
BiSbTe3,mp-1227340,0.19,0.2132999999999993,-0.4416057879999983
Tl4CuTeO6,mp-1191858,2.2,0.4697999999999993,-1.149301803333336
RbGaSnSe4,mp-1209628,1.88,1.3781,-0.9905953270535716
Na3Sb,mp-7956,1.17,0.3946,-0.5695521887500004
ZnAs2,mp-7262,0.93,0.2240999999999999,-0.1489907495833335
PbI2,mp-567503,3.01,2.4455,-0.9556307083333304
InAgTe2,mp-22386,0.96,0.0649999999999999,-0.3761139775000011
FeSi2,mp-1714,0.85,0.6966000000000001,-0.3956350933333337
Ba2GaSe4,mp-1195574,1.63,1.0042,-1.699913990803572
Mg2Ge,mp-408,1.67,0.1689000000000002,-0.3438967266666672
CoSbS,mp-5881,0.5,0.3673999999999999,-0.3702056617708346
K3Sm(AsS4)2,mp-560964,2.2,1.6795000000000002,-1.1884497929821425
EuAl2O4,mp-1019732,2.74,0.0991999999999997,-3.4106681425000005
BPb7Br3O7,mp-1201413,2.62,1.9254,-1.692796271898147
ReSe2,mp-541582,0.99,1.1434000000000002,-0.4631658177083295
SnTe,mp-1883,0.33,0.0419,-0.2650498800000029
GaAgSe2,mp-5518,1.83,0.2491999999999998,-0.6880345922135409
As2S3,mp-1189572,2.0,1.9873,-0.1559328821874984
CdAs2,mp-471,1.14,0.1331999999999999,-0.0612309899999997
CdSb,mp-1321,0.59,0.0200999999999997,-0.0958698493749992
GaCuSe2,mp-4840,1.6,0.0398,-0.5736508945312497
In4Te3,mp-617281,0.5,0.1223999999999998,-0.3945398596428536
KI,mp-22898,6.08,3.8513,-1.6953124236249997
NaBiSe2,mp-1221101,0.32,1.0922999999999998,-0.9754612565167028
PbS,mp-21276,0.3,0.4666999999999994,-0.7835693762499978
SnSe,mp-691,0.91,0.5159000000000002,-0.4535463082812505
Zn3As2,mp-680580,0.86,0.1646999999999998,-0.1436223710625004
ZrS2,mp-1186,2.75,1.0418,-1.8476674483333329
CaTe,mp-1519,4.07,1.5535,-1.9175140150000016
Mn(PbO2)2,mp-21823,1.5,0.4894999999999996,-1.6494790855972885
BaGa2GeS6,mp-1227983,3.23,2.7663,-1.225007931499999
SiB3,mp-569128,2.0,1.4080000000000004,-0.0441499209375004
SbSeBr,mp-1209072,1.84,1.4377999999999995,-0.8043009266145843