Formula,Material ID,Experimental Band Gap (eV),Band Gap (eV),Formation Energy (eV/atom)
Ga1.01Sb0.99Te0.03,N/A,0.68,N/A,N/A
In0.4P0.4Ga0.6As0.6,N/A,1.74,N/A,N/A
Sb2Te3,mp-1201,0.21,0.13140000000000018,-0.38319984600000223
Er2Mo3O12,N/A,1.04,N/A,N/A
TlSe,mp-1836,0.67,0.19799999999999995,-0.37315311578124977
GaSe,mp-568263,2.17,1.2121,-0.6900187082812508
Ge0.1Si0.9,N/A,1.04,N/A,N/A
Y2S3,mp-541289,2.9,1.5992000000000002,-2.382070257687502
Ba3Ta2ZnO9,mp-1214475,4.32,3.3487999999999998,-3.2135429088111107
CuBS2,mp-12954,3.61,1.7424999999999997,-0.5917289910416663
Zn0.4Hg0.6Se,N/A,0.5,N/A,N/A
Ta2O5,mp-10390,4.2,0.26370000000000005,-3.3270216671428585
Pb0.75Sn0.25Se,N/A,0.04,N/A,N/A
ZnCu2GeS4,mp-6408,2.1,0.36939999999999973,-0.6981088393749997
Cu0.2In1.8Se2.8,N/A,1.26,N/A,N/A
AgS,N/A,1.0,N/A,N/A
P2Os,mp-2319,1.2,0.8902999999999999,-0.6073711853174615
RbZrPSe6,N/A,2.0,N/A,N/A
Bi2S3,mp-22856,1.2,1.3617999999999997,-0.6626376374999999
Zn3P2,mp-2071,1.15,0.3144,-0.25662684569047656
GeO2,mp-470,5.63,1.2157,-1.8503387316666664
CdSe,mp-1070,1.73,0.5724,-0.8376061936718759
Ag2SnSe3,mp-1096812,0.81,0.05860000000000021,-0.47300047381076205
NdTe2,mp-2550,0.48,0.0,-1.4719210508333305
NaSbS2,mp-5414,1.8,0.8857000000000004,-0.7950349764062512
Cu2GeSe3,mp-4728,1.1,0.0,-0.48109025867187327
GePb2(SeO3)4,mp-1198509,4.1,3.3095999999999997,-1.4785955699671038
CsSmZnSe3,mp-505709,2.43,2.0423999999999998,-1.6442819411144043
Sb3IO4,mp-1209215,2.61,2.5352,-1.5902952392187384
BaNaB5O9,mp-1019554,4.78,5.0076,-2.9342000490445397
Bi2SeI2O11,N/A,3.7,N/A,N/A
CdP2,mp-913,2.15,1.4556,-0.181319395734126
Dy3Al0.5SiS7,N/A,2.22,N/A,N/A
TlCr5S4Se4,N/A,0.85,N/A,N/A
Nd2ZrS5,mp-1196300,1.83,1.0763999999999996,-2.200962773437502
MnTe,mp-1009222,1.35,0.0,-0.6114687772413809
LiInSe2,mp-20187,2.83,1.5731,-1.0569644336979156
Ga1.005Sb0.995Te0.015,N/A,0.68,N/A,N/A
Ba3InS4Cl,mp-1205371,3.42,2.8257,-2.0489990940740737
EuVO4,mp-22796,3.26,0.0,-2.8225460174999917
CuGa3Se5,N/A,1.81,N/A,N/A
Bi5IO7,mp-554445,2.76,2.7325000000000004,-1.5978866340384614
CsLaHgSe3,mp-11124,2.46,1.4545,-1.5317232248644033
Mg2Pb,mp-20724,0.1,0.0,-0.03637390333332983
CdSe,mp-1070,1.77,0.5724,-0.8376061936718759
NaI,mp-23268,5.89,3.5686999999999998,-1.475365545689655
NaAsSe2,mp-984519,1.71,1.0293,-0.6503431157812489
TlSe,mp-1836,0.75,0.19799999999999995,-0.37315311578124977
ReSi2,mp-12605,0.2,0.0,-0.1467759741666678
Zn0.99Cd0.01Se,N/A,3.7,N/A,N/A
NaIn3S5,mp-1195769,2.18,1.2428,-0.8941908153125048
TiC0.9,N/A,0.3,N/A,N/A
KPbB5O9,N/A,3.1,N/A,N/A
GaTe,mp-542812,1.63,1.0066000000000002,-0.4429932008333329
In2Te,N/A,0.46,N/A,N/A
Cu0.4In1.6Se2.6,N/A,1.32,N/A,N/A
ZnSnAs2,mp-5190,0.65,0.0,-0.1867147650000005
BaS,mp-1500,3.88,2.1488,-2.329084296249999
Cu2In4Te7,N/A,1.1,N/A,N/A
TePb,mp-19717,0.32,0.8063000000000002,-0.5038298999999995
K2Sn(AuS2)2,mp-557121,2.75,1.6433,-0.8995381188333325
TlBr,mp-568949,3.4,2.1678,-1.0309185724999992
K3NaSn3Se8,mp-628185,2.2,1.4211000000000003,-1.0196961934586208
Rb2NbCuS4,mp-15221,2.64,1.9749,-1.3156701574999996
AgO,mp-2803876,1.57,0.0,-0.4404204070833315
CdS,mp-672,2.55,1.125,-0.776127461406249
Rb2Ti(CuS2)2,mp-7129,2.19,1.4368000000000003,-1.2759685892592603
Sb2Os,mp-2695,0.3,0.34470000000000134,-0.08399437833333441
SbSI,mp-23041,2.02,1.6276000000000002,-0.6224157683333296
LiAlB14,mp-8204,1.82,1.2527,-0.1910395597916672
Ba3Sn0.87Bi2.13Se8,N/A,0.79,N/A,N/A
K2In3CuSe6,mp-21713,1.68,1.1284,-0.9776056600885408
Ce2Te3,mp-1188216,1.22,0.0,-1.6414606439999986
KCd4Ga5Se12,N/A,2.16,N/A,N/A
Eu(GaTe2)2,mp-1103807,1.7,0.0,-0.8658765985714264
PbBr2,mp-2456335,3.23,2.6426999999999996,-1.3493225858333322
ScN,mp-2857,2.6,0.0,-2.092353565
Ba3Gd2(PS4)4,mp-684036,3.41,1.4043999999999999,-1.4955072069428565
CsK2Sb,mp-581024,1.2,0.8633999999999997,-0.558875109375002
CoAsSe,mp-505511,0.2,0.3947000000000003,-0.38076552010416737
Sm4GaSbS9,mp-1199065,2.23,2.0006,-1.8393253721666663
ZnHg3(SCl2)2,mp-1105779,2.65,0.03920000000000001,-0.6292481787500019
BeO,mp-2542,10.39,7.463900000000001,-3.1007044437499998
Ga1.05Sb0.95Se0.15,N/A,0.66,N/A,N/A
CdGeAs2,mp-4953,0.56,0.008500000000000174,-0.07637719499999918
Na3WO4Cl,N/A,4.99,N/A,N/A
GeAs2,mp-17524,1.06,0.7195999999999998,-0.062423882499999195
In0.01Al0.99P,N/A,2.4,N/A,N/A
Ba4CuGa5Se12,N/A,1.45,N/A,N/A
CsCd4Ga5Te12,N/A,1.67,N/A,N/A
InAsI,N/A,0.41,N/A,N/A
Ag3SbS3,mp-555269,2.05,1.5142000000000002,-0.206377109062497
FeCuSe2,mp-505244,0.15,0.0,-0.36968365492187516
Sc(CuSe)3,mp-1219527,0.3,0.9079000000000006,-0.7774280813839312
RbBiS2,mp-30041,1.26,1.339,-1.0293574356250002
Hg0.8Zn0.2Te,N/A,0.07,N/A,N/A
AlN,mp-661,6.28,4.0467,-1.6796721718749996
SiAs,mp-1863,1.45,1.4518999999999997,-0.0720071150000005
In2Se3,mp-612740,1.18,0.9901999999999997,-0.6866874677708324
ScHg,mp-11471,0.24,0.0,-0.4818263962499998
Pb4Sb6Se13,N/A,0.65,N/A,N/A
CdP4,mp-7904,0.99,0.6551,-0.12074253238095167
CdSnAs2,mp-3829,0.26,0.006299999999999972,-0.11699921750000009
Cs6.40Na1.60Ga8Ge38,N/A,0.22,N/A,N/A
NaYbP2S6,N/A,1.85,N/A,N/A
GaN,mp-804,3.44,1.7264999999999997,-0.670049406875
Rb3Na(MoO4)2,mp-1104938,4.84,4.5827,-2.1862185752770933
BeS,mp-422,4.17,3.1453,-1.3072513737499998
Ag7AsS6,mp-15077,1.0,0.5009999999999999,-0.12535749799107115
Ga2S3,mp-539,2.8,1.7106,-0.7969372256875005
TlAsSe2,mp-30236,1.35,1.0901,-0.4756940084114607
Ag0.2Cd0.75In2.1Te4,N/A,0.54,N/A,N/A
WSe2,mp-1821,1.45,1.4465,-0.6036195060416674
NdCuSO,mp-542314,2.98,1.6179999999999994,-2.197959541484371
Zn0.99Cd0.01Se,N/A,3.6,N/A,N/A
ZnB12(H5O12)2,mp-1195627,4.6,5.783799999999999,-2.3003498450531916
CdTe,mp-406,1.66,0.5846000000000002,-0.5607400050000031
CdS,mp-672,2.49,1.125,-0.776127461406249
Cs2Hg6S7,mp-17905,1.63,0.6230999999999998,-0.6277655741206928
CaB6,mp-865,4.5,0.0,-0.4749661892857152
In5AgS8,mp-36751,1.76,0.10349999999999948,-0.7027461991071411
KTeP2,mp-1188829,1.4,1.2093000000000003,-0.5346322361755949
V2O5,mp-25279,2.36,2.2826000000000004,-2.2859484475000005
CuBr,mp-22913,2.9,0.48709999999999987,-0.559571324999999
Hg2Br2Te2,N/A,2.06,N/A,N/A
ScNiSb,mp-3432,0.11,0.2679,-0.9635939116666634
BaGa2GeSe6,mp-1227970,2.22,1.9186,-1.1116526904062503
Na2Te,mp-2784,2.3,2.0282,-1.1278026200000018
In4As5(BrO4)3,mp-1200791,4.22,2.9879999999999995,-1.709859905798611
CuBr,mp-22913,3.02,0.48709999999999987,-0.559571324999999
TaN,mp-1279,2.3,0.0,-1.358706148041667
Na2Mo2Se2O11,mp-1195277,3.1,2.7771999999999997,-1.784468103526242
K4Ag9Sb4S12,N/A,2.0,N/A,N/A
K2Gd2Sb2Se9,mp-1199482,1.33,0.9220000000000002,-1.32107574920625
RbBi3Se5,mp-1209327,0.8,0.984,-0.8503077571354167
SbTeRu,mp-1102857,0.5,0.6273999999999997,-0.5274181522222214
SnS,mp-2231,1.07,0.9047999999999998,-0.4716001876562501
BiI3,mp-22849,1.93,2.5349,-0.8167579112500007
Zn0.7S0.7Ga0.3P0.3,N/A,2.5,N/A,N/A
ZnSiAs2,mp-3595,2.12,0.8866,-0.19129557750000004
Dy3GaS6,mp-1189242,2.81,2.0614999999999997,-2.0012227226874986
La2Ga0.33SbS5,N/A,1.76,N/A,N/A
Ba(BO2)2,mp-540659,6.7,4.522399999999999,-3.094466466904759
UO,mp-7830,1.5,0.0,-2.6063505587499964
CuSbS2,mp-4468,1.4,0.7226999999999997,-0.30408631140625
SmS,mp-1269,2.3,0.0,-2.27336953875
InSnAsSe,N/A,0.26,N/A,N/A
ZnSe,mp-1190,2.68,1.1663,-0.9515610311718761
Cs4Zr3S14,mp-680246,2.35,1.4329000000000003,-1.460803963505747
Ba7AgGa5S15,N/A,2.6,N/A,N/A
Ca(NdS2)2,mp-35876,2.7,2.0612999999999997,-2.3801285966071424
CsSmZnSe3,mp-505709,2.63,2.0423999999999998,-1.6442819411144043
NaIn3Se5,N/A,2.17,N/A,N/A
PSe,mp-28885,2.5,2.2420999999999998,-0.09047540226934458
Hg0.01Zn0.99Te,N/A,2.17,N/A,N/A
ScTlSe2,mp-13313,0.79,0.6146000000000003,-1.4527441607812506
Sb2Te3,mp-1201,0.28,0.13140000000000018,-0.38319984600000223
Tl2O3,mp-1658,2.25,0.0,-0.8033866699999976
CdGeAs2,mp-4953,0.5,0.008500000000000174,-0.07637719499999918
Mg2Sn,mp-2343,0.23,0.0,-0.1670987783333319
SrPb3Br8,N/A,3.2,N/A,N/A
FeCuS2,mp-3497,0.43,0.0,-0.51395774625
KSbS2,mp-11703,1.67,1.601,-0.8523867423437501
RbCl,mp-23295,8.2,4.8388,-2.24487251375
Mn(SbSe2)2,mp-1210700,0.31,0.39280000000000026,-0.4954999465332496
K2TeI6,mp-27688,1.38,1.7449,-1.0397679045740706
Na2TeSe3,mp-573581,1.87,1.2031,-0.7647873803645832
Cd3As2,mp-570634,0.11,0.0,-0.0658399168749991
CsSb,mp-573514,0.61,0.5557999999999996,-0.599732107500003
CsZrPSe6,N/A,2.0,N/A,N/A
Zn2In2S5,mp-560806,2.68,0.0,-0.769704392911701
Eu3Bi4S9,N/A,1.18,N/A,N/A
Ga0.01Al0.99P,N/A,2.49,N/A,N/A
RbBa2P5O15,N/A,7.6,N/A,N/A
LiMgBi,mp-570213,0.4,0.35870000000000024,-0.41329900277777626
NaBiS2,mp-1221125,0.44,1.4468999999999994,-1.0003154465948274
CdGeP2,mp-3668,1.73,0.6455000000000002,-0.15083163273809497
CoSb3,mp-1317,0.49,0.16330000000000044,-0.14788407500000034
InSe,mp-20485,1.05,0.4590000000000001,-0.676726512031248
GaBi25O39,mp-849761,2.99,2.1910000000000007,-1.6617507495384618
Ba12In4S19,mp-1229044,2.56,1.9780000000000002,-1.877253377261904
Cu0.1Ga1.9S2.9,N/A,2.65,N/A,N/A
Bi7O5F11,mp-1190898,4.05,3.9069,-2.440654648478263
Zn0.01Cd0.99Se,N/A,2.4,N/A,N/A
Sr4Te3(ClO2)4,mp-1218587,4.0,3.3574,-2.4332422621052627
Ba(InS2)2,mp-21943,3.06,2.2042,-1.363193132440475
InAgSe2,mp-20554,1.25,0.0,-0.6512377807552081
BaTiO3,mp-5777,3.06,2.2929999999999997,-3.489696347166634
SrGe2,mp-7390,0.9,0.0,-0.5580997133333317
Cu0.1Ga1.9S2.9,N/A,2.6,N/A,N/A
Cd4P2Cl3,mp-29746,2.24,1.3836,-0.7342025553835975
In0.98As0.98Cd0.02Te0.02,N/A,0.73,N/A,N/A
GaSe,mp-568263,2.09,1.2121,-0.6900187082812508
InSe,mp-20485,1.19,0.4590000000000001,-0.676726512031248
WO3,mp-2383161,2.8,1.3529,-2.187633568437499
Na2Ga2GeS6,mp-1190388,3.29,2.6215,-1.0820111261598735
Ga0.5Al0.5As,N/A,2.12,N/A,N/A
ScCuO2,mp-3642,3.3,2.3309,-2.6016083987500007
Gd2O3,mp-504886,5.3,2.9411000000000005,-3.7546271654999996
GaAs0.01P0.99,N/A,2.23,N/A,N/A
LiInS2,mp-1188392,3.59,2.2212,-1.1272425393229177
IrS2,mp-2833,0.9,0.5371000000000006,-0.502104100624995
MnI2,mp-28013,4.04,1.1707999999999998,-0.7401451926436776
In0.4Ga0.6P,N/A,2.05,N/A,N/A
Eu1.83Ta15O32,N/A,0.23,N/A,N/A
Ga2(TeO3)3,mp-1181313,4.14,3.7830999999999997,-1.761193612678571
In2Se,mp-627397,0.83,0.0,-0.3561565484375014
Ba3Sb2S7,mp-1195624,2.4,1.9021999999999997,-1.5155305889583328
AsPRu,mp-1228753,0.8,0.4142999999999999,-0.5224170876587332
KAg2AsS3,N/A,2.25,N/A,N/A
PrBN2,mp-9028,4.0,2.1062000000000003,-1.5376837745833332
Sr3Se3O8Cl,N/A,4.4,N/A,N/A
LiBr,mp-976280,7.5,4.9350000000000005,-1.8171358458333335
Cd0.95Te0.95Al0.05Sb0.05,N/A,1.37,N/A,N/A
Cs2Ga2Se5,N/A,1.95,N/A,N/A
Cd3P2,mp-2441,0.58,0.0018000000000002458,-0.12317778194047549
Zn3(InS3)2,mp-637614,2.8,0.0,-0.7909115763392885
RbBi3Se5,mp-1209327,0.43,0.984,-0.8503077571354167
Pb0.9Ge0.1Se,N/A,0.3,N/A,N/A
InCuSe2,mp-22811,1.07,0.0,-0.5557744057812499
InAs,mp-20305,0.28,0.0,-0.3885098062499992
Cu2Te3O8,mp-17598,2.64,0.0,-1.2880172746153842
EuSnTe2,N/A,0.6,N/A,N/A
CuI,mp-570081,3.05,1.6315,-0.3687411008333328
Ba2DyInTe5,mp-1189860,1.35,0.7071000000000005,-1.521918991296295
GaAs,mp-2534,1.53,0.18610000000000015,-0.44627705625000047
CsSmHgSe3,mp-7212,2.37,1.3625,-1.4654157023644057
Ca3(BN2)2,mp-1227905,3.9,2.4714000000000005,-1.3842126779629633
Pb0.8Sn0.2Te,N/A,0.08,N/A,N/A
EuSb2BO8,N/A,3.46,N/A,N/A
K4Hf3Se14,N/A,2.02,N/A,N/A
NaCeS3,N/A,2.15,N/A,N/A
SnPbS3,mp-1188095,1.05,1.0929000000000002,-0.7316311474999985
Si2Te3,N/A,2.16,N/A,N/A
LaTaN2O,mp-550514,2.0,0.6712999999999996,-2.2146763399666667
Cs4Ta4P4Se24,N/A,2.38,N/A,N/A
Eu(ErSe2)2,mp-1193984,1.7,0.1958000000000002,-2.2403640222023813
BaGe2,mp-2139,1.0,0.5255000000000001,-0.530256497916667
TlInSe2,mp-22232,1.18,0.7351000000000001,-0.6729150770312486
Bi2CrI2O11,N/A,2.4,N/A,N/A
Ga0.85As0.85Zn0.15Se0.15,N/A,1.47,N/A,N/A
LiInSnS4,N/A,2.3,N/A,N/A
Pr2Te3,mp-32581,1.5,0.8827999999999996,-1.7168151456666692
Eu(GaSe2)2,mp-1201775,2.16,0.08359999999999967,-1.2989818231250005
Na2Zn(GeSe3)2,mp-1190476,2.36,1.3476000000000001,-0.8725742951655562
In2Se3,mp-612740,1.42,0.9901999999999997,-0.6866874677708324
Pr2Te4O11,mp-2980,3.65,3.3043,-2.2621937119117517
CoP3,mp-1944,0.45,0.0,-0.49524429785714297
TlInTe2,mp-22791,0.7,0.5400999999999998,-0.5706006233333358
Zn(InTe2)2,mp-20832,1.95,0.8291,-0.6145036685714302
RbCu2SbS3,N/A,1.67,N/A,N/A
Tl2Hg3Te4,mp-1190100,0.9,0.9897,-0.3773756300925959
Cr2S3,mp-555569,1.1,0.0,-0.9928003984999976
InN,mp-22205,1.95,0.0,-0.11770066687499892
Cu2O,mp-361,2.58,0.5126999999999997,-0.5030930383333327
Er2Te3,mp-14643,0.9,0.05210000000000026,-1.644872913333336
AgGaSiSe4,N/A,2.63,N/A,N/A
Rb8Ga8Si38,N/A,1.18,N/A,N/A
AgSbTe2,mp-12360,0.6,0.0,-0.29143718124999873
Li2In2GeS6,mp-1191476,3.45,2.3229000000000006,-1.026634472272726
SnBr2,mp-29862,3.5,2.5387,-0.9049908233333331
ThO2,mp-643,3.3,4.4187,-4.2402188066666655
Bi8Te7S5,N/A,0.4,N/A,N/A
PbGa2SiSe6,N/A,2.17,N/A,N/A
Li2ZnGe,mp-569115,1.1,0.0,-0.3396181366666666
RbNa2Sb,mp-975275,1.0,0.5682,-0.4259336500646551
TaGaS2,N/A,2.56,N/A,N/A
K2Hg3S2.69Se1.31,N/A,2.28,N/A,N/A
In0.3Al0.7P,N/A,2.3,N/A,N/A
GaTe,mp-542812,1.74,1.0066000000000002,-0.4429932008333329
SrS,mp-1087,4.76,2.497,-2.4245093739062504
LiGaS2,mp-3647,3.62,2.9608,-1.187989849322916
In2Se3,mp-612740,0.97,0.9901999999999997,-0.6866874677708324
MnTe9,N/A,2.0,N/A,N/A
LiCl,mp-22905,9.33,6.25,-2.025595019583333
TlSe,mp-1836,0.73,0.19799999999999995,-0.37315311578124977
CuIn2S3.5,N/A,1.43,N/A,N/A
ZnCu2SiS4,mp-1189702,3.25,1.6100000000000003,-0.8012945443749997
Pb0.93TeGa0.07,N/A,0.34,N/A,N/A
CuHg(SeO3)2,mp-1194904,3.25,0.7590999999999999,-1.07189737321875
LiBiS2,mp-1222404,0.11,1.4793000000000003,-0.9981624420833315
Ca(BiO2)2,mp-558751,3.08,2.4507,-2.151954245357141
Tl3VS4,mp-5513,1.76,1.9554,-0.8552032675000003
DyTe1.40,N/A,0.6,N/A,N/A
Rb3Zn(BO2)5,mp-1020643,2.66,4.1752,-2.635738485307018
Li0.5Pb1.75GeS4,N/A,1.95,N/A,N/A
ZnCu2SiS4,mp-1189702,3.0,1.6100000000000003,-0.8012945443749997
SnS,mp-2231,1.08,0.9047999999999998,-0.4716001876562501
Mn1.95GdIn1.05S5,N/A,1.66,N/A,N/A
BiI3,mp-22849,2.0,2.5349,-0.8167579112500007
Ge0.97Si0.03,N/A,0.67,N/A,N/A
Cs2MgGe3Se8,mp-1195667,2.04,1.4687000000000001,-0.9834246223614532
Hg0.72Cd0.28Te,N/A,0.21,N/A,N/A
Pb0.98Te0.98Ge0.02S0.02,N/A,0.34,N/A,N/A
CsHo9Cd4Se18,N/A,2.06,N/A,N/A
InCuS2,mp-22736,1.52,0.0,-0.6243807539062498
TlCl,mp-571079,3.2,2.5181,-1.3258213141666677
BaLa2Te5O14,mp-559703,3.81,3.2283,-2.3182009681060602
RbSbSe2,mp-1189259,1.62,1.5375,-0.9248630299218732
VO,mp-19184,0.3,0.9700999999999995,-2.088136401249999
Ag2Ga2SiS6,N/A,2.35,N/A,N/A
RbCu2AsS3,N/A,1.96,N/A,N/A
TlBr,mp-568949,2.67,2.1678,-1.0309185724999992
La5Cu6.33O4S7,N/A,2.0,N/A,N/A
Pb0.99Sn0.01Se,N/A,0.26,N/A,N/A
CoAsS,mp-553946,0.6,0.0,-0.48031348510416666
Ba3La3(Cu3O7)2,mp-1228365,1.8,0.0,-2.267031602307692
BiI3,mp-22849,1.92,2.5349,-0.8167579112500007
Zn4Sb3,N/A,1.0,N/A,N/A
Cu0.01In1.99Se2.99,N/A,1.45,N/A,N/A
KSnAuS3,mp-1223460,2.3,1.6528,-0.8503863766249987
TaGaS2,N/A,3.6,N/A,N/A
Ba7Sn5S15,N/A,2.29,N/A,N/A
Se3Te,N/A,1.87,N/A,N/A
Al2Se3,mp-11674,3.15,1.8004000000000002,-1.008823536437501
Cu0.2Ga1.8S2.8,N/A,2.65,N/A,N/A
NaLa2TaO6,mp-13019,4.5,3.9791999999999996,-3.502169340371265
MoO3,mp-715584,3.7,1.9098000000000002,-1.9214148340624995
ReSi2,mp-12605,0.13,0.0,-0.1467759741666678
Cs3Sb2Br9,mp-579560,2.3,1.9837,-1.5987775242118223
AgSbSe2,mp-1229000,0.74,0.0,-0.4053052565885409
Ca3N2,mp-844,1.55,1.1111,-0.95972068425
InAs,mp-20305,0.45,0.0,-0.3885098062499992
Sm(CuTe)3,mp-1219189,0.23,0.6511000000000005,-0.5973398869643022
KCeSe4,mp-22395,1.54,0.0,-1.4535187327708308
BaAl4Se7,mp-1191234,3.4,2.3933,-1.3705739376171866
K2Bi8Se13,mp-28800,0.59,0.8361000000000001,-0.8089414845638601
Sb2Te3,mp-1201,0.24,0.13140000000000018,-0.38319984600000223
PbSe,mp-2201,0.35,0.42569999999999997,-0.6725727545312452
CuP2,mp-927,1.51,0.8679000000000006,-0.15631046115079408
RbI,mp-22903,5.83,3.7765,-1.7211735837500006
Fe2Te3,mp-685077,0.6,0.0,-0.2055069479999993
NaCdAsS3,mp-1192203,2.93,1.9752999999999998,-0.8348807264798843
Zn3P2,mp-2071,1.2,0.3144,-0.25662684569047656
V2O5,mp-25279,2.54,2.2826000000000004,-2.2859484475000005
Zn0.55Hg0.45Se,N/A,0.8,N/A,N/A
TlSe,mp-1836,1.3,0.19799999999999995,-0.37315311578124977
Li2CdSnS4,mp-1188784,3.26,1.9513,-1.1034571808333329
Rb2Cd3Se4,mp-16818,2.37,1.4123,-1.0423489696527757
SmSe,mp-1447,0.46,0.0,-2.0822330895312504
In0.8As0.8Ga0.2P0.2,N/A,0.85,N/A,N/A
BaS,mp-1500,3.9,2.1488,-2.329084296249999
Cs3Li4(BO2)7,mp-1019615,6.53,4.5217,-2.692236314219006
Rb2Cd3S4,mp-18556,2.92,1.7838,-1.0494253316666646
GaTe,mp-542812,1.78,1.0066000000000002,-0.4429932008333329
ScCd,mp-1211,1.71,0.0,-0.32422748249999955
CdSnP2,mp-5213,1.4,0.26949999999999985,-0.08489588232142742
NaSm(PS3)2,mp-561232,2.54,2.5197,-1.2143521100665011
CdAs2,mp-471,1.04,0.13319999999999999,-0.06123098999999973
GaAgS2,mp-5342,2.56,0.9622000000000002,-0.6195302464062493
P2Pt,mp-730,0.6,1.0185999999999993,-0.7895928486507936
Gd2Te3,mp-1105966,0.74,0.11299999999999955,-1.6330171360000008
PbS,mp-21276,0.29,0.46669999999999945,-0.7835693762499978
Ag3AsSe3,mp-662599,2.07,0.8906000000000001,-0.30236748243303524
KSb,mp-1536,0.9,0.6095000000000002,-0.5711374081250007
CaZnSO,mp-7204,3.7,2.6853,-2.1727895187499993
Sb2Pt,mp-562,0.07,0.0,-0.5418041466666637
BaAuI5O15,N/A,2.32,N/A,N/A
Mg2Co,N/A,0.66,N/A,N/A
Ag2SnSe3,mp-1096812,0.7,0.05860000000000021,-0.47300047381076205
CdSe,mp-1070,2.27,0.5724,-0.8376061936718759
GaAgO2,mp-11020,2.2,0.5832999999999999,-1.5802041210416657
Pb0.85Ge0.15Te,N/A,0.36,N/A,N/A
GaCuS2,mp-5238,2.44,0.7056000000000004,-0.6983747601562484
EuS,mp-20587,1.69,0.0,-2.4620848664062507
AgS,N/A,0.85,N/A,N/A
Pb0.95Se0.95Ge0.05S0.05,N/A,0.29,N/A,N/A
V2Bi4O11,mp-757152,2.0,0.0,-1.9993137875000002
Ga2Te3,mp-38970,1.5,0.6375000000000002,-0.4022364190000019
In2HgS4,mp-22356,2.0,0.34670000000000023,-0.7311374701190471
Li4.5Cr0.5TeO6,N/A,1.79,N/A,N/A
ErIn3S6,N/A,1.28,N/A,N/A
Na2B6O9F2,N/A,7.33,N/A,N/A
GeSe,mp-700,1.16,0.8988,-0.4517030911718738
Pb0.95Se0.95Sn0.05Se0.05,N/A,0.22,N/A,N/A
K8Zr6Se30,N/A,1.91,N/A,N/A
Sr5V3O12F,mp-40674,4.5,3.7634999999999996,-3.1421707151190477
FeAgTe2,mp-1224997,0.28,0.0,-0.15548300374999968
CdS0.65Se0.35,N/A,2.13,N/A,N/A
SnHgO3,mp-13554,1.6,0.0,-1.2146171764999991
EuTe,mp-542583,2.0,0.0,-1.9925802475000012
RbV(CuS2)2,mp-15998,1.45,0.8835999999999999,-1.083831217187499
Pb6B4O13H2,N/A,3.24,N/A,N/A
SnS0.4Se0.6,N/A,1.02,N/A,N/A
InSb,mp-20012,0.17,0.0,-0.23802167499999882
LaZnAsO,mp-549589,1.5,0.5760000000000005,-2.0594355450000013
P4Ru,mp-27173,0.38,1.2586000000000013,-0.5147035367142848
Ca(LaS2)2,mp-35421,2.7,2.1455,-2.4737651023214267
Sn0.5GaZn4.5O7,N/A,3.0,N/A,N/A
Ba2ErGaSe5,mp-1105790,1.95,1.6730999999999998,-1.9038702560243053
NaBr,mp-22916,7.5,4.0895,-1.8674453799999995
Se0.4Te0.6,N/A,0.7,N/A,N/A
Rb3Bi2I9,mp-29895,1.89,2.2165,-1.217436266607143
Cd12Ge17(B4O29)2,mp-1204954,4.29,0.00010000000000021103,-1.8913964232894687
Ca2ScSbO6,mp-1189528,3.68,3.6317999999999997,-3.124920209
CdTe,mp-406,1.59,0.5846000000000002,-0.5607400050000031
Cu1.8S,N/A,2.3,N/A,N/A
LaNbON2,N/A,1.7,N/A,N/A
CdP4,mp-7904,0.9,0.6551,-0.12074253238095167
RbIn5S6,N/A,2.5,N/A,N/A
FeAgTe2,mp-1224997,0.31,0.0,-0.15548300374999968
GaSb,mp-1156,0.77,0.0,-0.22927192000000218
SnTe,mp-1883,0.36,0.04190000000000005,-0.26504988000000296
AlBi,mp-1018132,0.4,0.0,0.06617068999999987
Rb2VAgS4,mp-8901,1.83,1.3323,-1.2060698845833322
Sm3Al0.33SiS7,N/A,2.26,N/A,N/A
NaInSe2,mp-22473,2.8,1.0191999999999997,-1.0091971145312488
LaP,mp-2384,0.54,0.0,-1.816090526488093
AgI,mp-580941,3.01,1.3759000000000001,-0.49308303083333227
Cd(InSe2)2,mp-22304,1.57,0.9563999999999999,-0.8343265846726184
TiS2,mp-2156,1.95,0.0,-1.6068726761111105
Zn0.15Cd0.85Se,N/A,2.6,N/A,N/A
CuCl,mp-1225654,3.29,0.5569000000000002,-0.4980032762499995
CsLu7S11,mp-1202825,1.86,2.0317999999999996,-2.3276776703327284
FeP4,mp-570553,0.32,0.8049,-0.37004192121428403
CsSb(SO4)2,mp-1195448,4.68,4.089700000000001,-1.9699148187212636
SbOsSe,mp-1101771,0.4,1.123400000000001,-0.3355620791145834
In0.5As0.5Ga0.5P0.5,N/A,1.55,N/A,N/A
ZnTc,N/A,2.37,N/A,N/A
Ba2ZnSe3,mp-1190528,2.75,1.6214000000000002,-1.8348509995052087
Y(CuSe)3,mp-1216202,0.88,1.1817000000000002,-0.8723855278125013
Ba2YGaSe5,mp-1106265,2.31,1.6616,-1.9070232199131938
AgSO4,mp-1196324,0.18,0.0,-1.3675863129861103
CdS,mp-672,2.64,1.125,-0.776127461406249
Ce4Te7,N/A,0.5,N/A,N/A
BaBSbS4,mp-866301,2.34,2.3423000000000003,-1.2103194630952376