Formula,Material ID,Experimental Band Gap (eV),Band Gap (eV),Formation Energy (eV/atom)
TlGaTe2,mp-3785,1.8,0.5555999999999996,-0.5782343447916678
Gd(CuS)3,mp-1226384,1.62,0.9673000000000007,-0.9917023304910718
Tm(CuTe)3,mp-2514049,0.14,0.39030000000000076,-0.6240276321428594
LiBi3(ClO2)2,mp-754206,3.35,2.7135000000000002,-1.8209047308333333
As2Se3,mp-909,1.81,1.4466,-0.13948285393749985
TlCl,mp-571079,3.46,2.5181,-1.3258213141666677
KSi2P3,N/A,1.72,N/A,N/A
NaNO2,mp-2964,3.13,0.0,-1.2314366828879306
NaBiS2,mp-1221125,0.42,1.4468999999999994,-1.0003154465948274
AgSbSe2,mp-1229000,0.67,0.0,-0.4053052565885409
La2YbCuS5,N/A,1.45,N/A,N/A
In0.1P0.1Ga0.9As0.9,N/A,1.6,N/A,N/A
CdSe,mp-1070,1.82,0.5724,-0.8376061936718759
Mg2Sn,mp-2343,0.14,0.0,-0.1670987783333319
Ga0.28In0.72As,N/A,0.55,N/A,N/A
ZnAs2,mp-7262,0.9,0.22409999999999997,-0.14899074958333358
Ag7AsSe6,mp-1200563,1.0,0.0,-0.2732609450520828
CdAg2GeS4,mp-1197203,2.32,0.9337,-0.5859673757291648
InP,mp-20351,1.28,0.4546000000000001,-0.3582735989880952
AgLi0.33Ti0.67O2,N/A,2.7,N/A,N/A
Hg0.06Zn0.94Te,N/A,2.03,N/A,N/A
YbGa2Se4,N/A,1.8,N/A,N/A
Ca2SmTaO6,N/A,3.45,N/A,N/A
Pb0.8Sn0.2Te,N/A,0.11,N/A,N/A
Ba4B11O20F,N/A,7.1,N/A,N/A
GaSe,mp-568263,2.11,1.2121,-0.6900187082812508
In2O3,mp-22598,2.8,0.9288999999999996,-1.8634906622499983
CrSb2,mp-22498,0.14,0.0,-0.0462333083333372
Zn(InS2)2,mp-674328,2.5,1.4023999999999996,-0.8054539316071408
Na2Nb4Se4O19,mp-1192640,3.56,2.3695,-2.2420940832632272
Cd3As2,mp-570634,0.12,0.0,-0.0658399168749991
Bi2Te1.2Se1.8,N/A,0.28,N/A,N/A
Cs2SiB4O9,mp-1226151,6.53,4.8121,-2.867606800217314
Cs10Cd4Sn4S17,N/A,3.16,N/A,N/A
TlInS2,mp-20042,2.52,0.4748000000000001,-0.7766988806250015
KIO3,mp-1200675,3.71,2.8533,-1.3732115182000002
Rb2Hg3(GeS4)2,mp-1209424,2.8,2.0942,-0.7963265001666675
Rb2TeI6,mp-28070,1.4,1.6225,-1.0634218568518503
SbSI,mp-23041,1.96,1.6276000000000002,-0.6224157683333296
SiGe,mp-1219182,0.88,0.6059999999999999,0.016203427499998924
Cs5P5Se12,N/A,2.17,N/A,N/A
NaAsS2,mp-5942,2.23,1.3553,-0.7070754651562492
Ho2GeS5,N/A,2.5,N/A,N/A
La2Se3,mp-32798,1.7,1.5389999999999997,-2.3422950321874993
TaGaS2,N/A,3.4,N/A,N/A
MnP4,mp-569522,0.28,0.47860000000000014,-0.35947862796715907
K10Zn4Ge4S17,N/A,3.34,N/A,N/A
YbS,N/A,0.98,N/A,N/A
Tl2Au2Sn2Se6,N/A,1.2,N/A,N/A
Cs2Bi2Cd2S5,N/A,1.7,N/A,N/A
LiIn(IO3)4,mp-973966,4.27,2.6987,-1.1560856266666661
TeSe3,N/A,1.87,N/A,N/A
Cr3Se4,mp-27840,1.59,0.0,-0.7667250841964284
Ga0.65Al0.35As,N/A,2.0,N/A,N/A
K2Bi8Se13,mp-28800,0.47,0.8361000000000001,-0.8089414845638601
Zn6S5Cl2,mp-1215990,2.71,1.5051,-0.9020160128846152
InCuSe2,mp-22811,0.8,0.0,-0.5557744057812499
InCuTe2,mp-22261,0.88,0.0,-0.36635076125000055
CsCl,mp-22865,7.8,4.9883999999999995,-2.176221471249999
Pb0.99Sn0.01Se,N/A,0.22,N/A,N/A
Pb0.999Se0.999Bi0.002Te0.003,N/A,0.79,N/A,N/A
Ag2O,mp-353,1.57,0.0,-0.3141996186111082
B3Pb3NO10,mp-1200969,3.64,3.0129,-2.023081635588237
MnVTe2O8,N/A,1.9,N/A,N/A
Cd0.99Te0.99Al0.01Sb0.01,N/A,1.6,N/A,N/A
KTbSe4,N/A,1.65,N/A,N/A
GaAs,mp-2534,1.42,0.18610000000000015,-0.44627705625000047
ZnAs2,mp-7262,1.2,0.22409999999999997,-0.14899074958333358
SrBiClO2,mp-547244,3.52,3.3015,-2.4247748199999997
FeSi2,mp-1714,1.0,0.6966000000000001,-0.39563509333333374
Ho2(MoO4)3,mp-1212381,1.07,3.5751,-2.6535868147058816
K2SmP2S7,mp-555587,2.59,2.2591,-1.3038260421904753
K10Zn4Sn4S17,mp-1224229,3.2,2.1803999999999997,-1.1835766015714277
CdS,mp-672,2.52,1.125,-0.776127461406249
AlSb,mp-2624,1.7,1.2255000000000003,-0.25297548500000033
Li0.2Na0.8AsSe2,N/A,1.57,N/A,N/A
Mg2Sn,mp-2343,0.35,0.0,-0.1670987783333319
Ba5V3O12F,N/A,3.85,N/A,N/A
LiI,mp-570935,6.0,4.3818,-1.4476474966666668
NaCd4P3,N/A,1.1,N/A,N/A
AlSb,mp-2624,2.22,1.2255000000000003,-0.25297548500000033
AlSb,mp-2624,1.49,1.2255000000000003,-0.25297548500000033
Eu(SbSe2)2,mp-1192961,0.95,0.0,-0.9815038463392857
Pb0.93TeIn0.07,N/A,0.32,N/A,N/A
ZnMoSb2O7,N/A,3.3,N/A,N/A
AsSeI,mp-505373,1.76,1.2345000000000002,-0.46812909494791555
InS,mp-19795,2.06,1.3508000000000004,-0.6828759189062499
Pb0.999Sn0.001Te,N/A,0.21,N/A,N/A
In0.94As0.94Cd0.06Te0.06,N/A,0.68,N/A,N/A
TlN,mp-1017982,1.4,0.0,0.7334453533333338
NaIn(IO3)4,mp-1196607,4.25,3.0219,-1.1458122371136643
ZnSb,mp-753,1.09,0.028200000000000003,-0.06144775499999966
AlAgO2,mp-9631,3.6,1.4090999999999996,-2.302725737916666
KF,mp-463,10.3,5.949400000000001,-2.917520910625
PbSe0.9S0.1,N/A,0.27,N/A,N/A
AlAgTe2,mp-14092,1.9,1.0469000000000004,-0.43926148875000237
Ba2InAgS4,mp-1197611,2.32,1.7053999999999996,-1.518799155729166
Sb2Se3,mp-2160,1.0,0.7564000000000002,-0.2844945879375018
TePb,mp-19717,0.29,0.8063000000000002,-0.5038298999999995
AsPPt,mp-1228792,0.4,0.7984,-0.6812109089087292
CeTl2P2S7,mp-638100,2.4,0.23289999999999988,-1.0181447000793646
LiPbSb3S6,N/A,1.6,N/A,N/A
Cd2V2Te2O11,N/A,2.48,N/A,N/A
TlCl,mp-571079,3.8,2.5181,-1.3258213141666677
As2S3,mp-1189572,2.45,1.9873,-0.15593288218749848
SnGa4Se7,N/A,2.55,N/A,N/A
Ho2O3,mp-812,5.42,3.9457999999999998,-3.960604681249998
Cd3P2,mp-2441,0.59,0.0018000000000002458,-0.12317778194047549
Ba2GaSbTe5,mp-1200935,1.66,0.9727999999999999,-1.1720431734259256
Hg0.7Cd0.3Se,N/A,1.1,N/A,N/A
PbSe,mp-2201,0.26,0.42569999999999997,-0.6725727545312452
PbS,mp-21276,0.6,0.46669999999999945,-0.7835693762499978
PbI2,mp-567503,2.54,2.4455,-0.9556307083333303
GaAs,mp-2534,1.48,0.18610000000000015,-0.44627705625000047
InP,mp-20351,1.41,0.4546000000000001,-0.3582735989880952
In0.9Al0.1P,N/A,1.5,N/A,N/A
Na3Sn2F6Cl,N/A,3.88,N/A,N/A
SnS,mp-2231,1.22,0.9047999999999998,-0.4716001876562501
ZnO,mp-2133,3.35,0.7227,-1.647445170000001
K5In3P6Se19,mp-1199321,2.2,1.0646000000000002,-0.7960867785951019
SnI4,mp-23182,2.38,2.0284,-0.7178692775000002
Ti6H2O13,mp-1191976,3.4,2.8867000000000003,-2.9672731535714303
LiSiB6,mp-973391,2.27,1.4627,-0.2021805635416669
PbSb2Se4,N/A,1.8,N/A,N/A
PdS,mp-20250,0.5,0.0,-0.4570447626562508
Cd0.9Te0.9Al0.1Sb0.1,N/A,1.36,N/A,N/A
KAu(IO3)4,mp-557441,2.75,2.1181,-0.9247018965138878
CsCl,mp-22865,8.1,4.9883999999999995,-2.176221471249999
Ba3Tb2(PS4)4,mp-554264,3.37,2.3711,-1.4943952465761903
KSiBiS4,mp-866651,2.25,2.0549,-1.0805384192500043
Ba4Si3Se9Cl2,N/A,1.76,N/A,N/A
Al2Te3,mp-29502,2.2,1.7992000000000004,-0.5590248137499998
FeIn2Se4,N/A,1.15,N/A,N/A
CsNbSe2O7,N/A,4.2,N/A,N/A
FeSc2,N/A,0.77,N/A,N/A
Ga0.99Sb0.99Cd0.01Te0.01,N/A,0.72,N/A,N/A
Cs3Nb2AsSe11,mp-683903,1.35,1.0014,-1.0585209201321633
K3Ta2AsS11,mp-1211748,2.21,1.8918000000000001,-1.149100428024509
GaCuGeSe4,mp-1224851,1.38,0.7335000000000003,-0.6582163459821422
Ba5Ga6SnP12,N/A,1.21,N/A,N/A
DyIn3S6,N/A,1.22,N/A,N/A
V2Pb4(Se2O7)3,mp-1203641,3.37,2.3938000000000006,-1.600614307926136
Eu(GaS2)2,mp-1181942,2.25,0.23430000000000017,-1.3381703385714283
PbMnIn2S5,N/A,1.45,N/A,N/A
ZnTe,mp-2176,2.28,1.0732999999999997,-0.6841630333333328
PbCdP4O12,N/A,4.85,N/A,N/A
Mg2Pb,mp-20724,0.15,0.0,-0.03637390333332983
Na2CdSnS4,mp-2831941,2.52,1.951,-1.0281793834698267
LiCsCO3,N/A,6.19,N/A,N/A
ThSeO,mp-7950,1.65,0.7690000000000001,-3.3027950549479144
SbI3,mp-23281,2.22,2.1446000000000005,-0.6814369887499998
Cd(InS2)2,mp-559200,2.0,1.0503999999999998,-0.7870932551785715
HgSe,mp-1018722,0.24,1.0432000000000001,-0.23692071328125053
Nb2Tl3CuSe12,mp-570757,0.8,0.5732000000000004,-0.7691176960069457
YH2NO5,N/A,4.83,N/A,N/A
Mg3P2,mp-2514,1.4,1.6067999999999998,-0.647706519857142
Zn0.4Hg0.6Se,N/A,0.42,N/A,N/A
InSb,mp-20012,0.27,0.0,-0.23802167499999882
Rb3Sb2I9,mp-1209693,1.94,1.9237000000000002,-1.1468130066071431
In0.6Al0.4P,N/A,2.12,N/A,N/A
Ba4Sb3S8Cl,N/A,2.09,N/A,N/A
Li2CdGe,mp-10686,0.99,0.0,-0.24828230041666588
ZnSiP2,mp-4763,2.07,1.3641000000000005,-0.3916568414880963
Bi2O3,mp-23262,2.91,2.1944999999999997,-1.658963656500002
CdTe,mp-406,1.45,0.5846000000000002,-0.5607400050000031
In6Se7,mp-1192955,0.72,0.46080000000000076,-0.6397181044951922
BaTiO3,mp-5777,3.04,2.2929999999999997,-3.489696347166634
NaInS2,mp-20289,1.9,1.8377,-1.0899044539062483
Bi14.7In11.3S38,N/A,1.45,N/A,N/A
Cd(GaSe2)2,mp-3772,2.48,1.3487,-0.8853534391964288
Bi2S3,mp-22856,1.45,1.3617999999999997,-0.6626376374999999
Cs2CdP2Se6,N/A,2.63,N/A,N/A
EuTe,mp-542583,1.96,0.0,-1.9925802475000012
Pb0.93TeTl0.07,N/A,0.54,N/A,N/A
ErBiW2O9,mp-1983109,3.26,2.5433999999999997,-2.489599371730767
Cu2Se,mp-1097707,1.29,0.051899999999999835,-0.07560757614583243
LiAsSe2,mp-1078724,1.5,0.7504,-0.6450723543229167
LiGa(GeSe3)2,mp-1222398,2.64,1.5103999999999997,-0.7912292119895831
Eu3(InP2)2,mp-1188263,0.45,0.0,-0.8341911557671958
GdAs,mp-510374,0.63,0.0,-1.7451414612500002
CsGaS3,mp-562726,3.0,2.4313000000000002,-0.9883059401875016
Mg3AsN,mp-1206514,1.33,2.2817999999999996,-0.896367267250001
Ba2ErInSe5,mp-1188122,2.29,1.1854,-1.8753344098206017
CsPSe6,mp-1225967,1.9,1.6167,-0.7060896763575659
Sb2Se3,mp-2160,1.11,0.7564000000000002,-0.2844945879375018
BiSCl,mp-23318,1.89,1.9636000000000005,-1.0292672974999981
Hg0.63Cd0.37Te,N/A,0.35,N/A,N/A
CdS0.8Se0.2,N/A,2.23,N/A,N/A
ZnTe,mp-2176,2.35,1.0732999999999997,-0.6841630333333328
Gd2S3,mp-669509,2.55,0.5267,-2.3342668131875
Na2TeS3,mp-1190141,2.35,1.7828,-0.9108006049042139
AgBiPbS3,mp-1229121,1.2,0.0682999999999998,-0.5591825115277759
Hg4As2ZrCl6,N/A,2.48,N/A,N/A
BaBiClO2,mp-552806,3.71,3.1773999999999996,-2.4172028580000005
CdSnAs2,mp-3829,0.4,0.006299999999999972,-0.11699921750000009
CdGeAs2,mp-4953,0.85,0.008500000000000174,-0.07637719499999918
RbYbZnSe3,N/A,2.07,N/A,N/A
CdGeAs2,mp-4953,0.72,0.008500000000000174,-0.07637719499999918
Cd4As2Br3,mp-1203526,1.78,0.9704,-0.694975289166667
In2HgTe4,mp-19765,0.86,0.5295000000000001,-0.40480253964285645
NaInTe2,mp-22483,1.6,0.6416,-0.7743100253448265
FePS,mp-1101971,0.25,0.5054000000000007,-0.6988506157142851
Sb2Pt,mp-562,0.06,0.0,-0.5418041466666637
Tm2O3,mp-1767,4.53,3.9787,-4.03254097425
As2Pt,mp-2513,0.8,0.07850000000000001,-0.6073781699999993
K1.46Sn3.09Bi7.45Se15,N/A,0.39,N/A,N/A
CdSiAs2,mp-3078,1.52,0.4001999999999999,-0.10667615875000092
Ba2NaCu3S5,mp-1191092,0.45,0.45040000000000013,-1.2184683617163008
GaN,mp-804,3.39,1.7264999999999997,-0.670049406875
RuS2,mp-2030,1.8,0.6683999999999992,-0.6867098235416668
KEuAsS4,mp-867419,1.89,0.0,-1.2709703021071428
Pb0.61Ge0.39Te,N/A,0.56,N/A,N/A
TlSe,mp-1836,0.65,0.19799999999999995,-0.37315311578124977
Cu3YbSe3,N/A,0.2,N/A,N/A
Pb0.96TeTl0.04,N/A,0.57,N/A,N/A
Pr2Se3,mp-32689,1.9,1.4255999999999998,-2.190777713854166
Li2FeSnS4,mp-1105173,1.86,0.0,-0.999074610208333
InAs,mp-20305,0.47,0.0,-0.3885098062499992
Ga2PbSe4,mp-571171,1.83,2.0313,-0.7127194333928547
Mg2Pb,mp-20724,0.04,0.0,-0.03637390333332983
Ba2B6O11,N/A,5.17,N/A,N/A
B6As,mp-624,1.51,2.6454000000000004,-0.20918894107142855
TlAsS2,mp-4988,2.22,1.677,-0.5108456258333338
InSe,mp-20485,1.25,0.4590000000000001,-0.676726512031248
PbO2,mp-20725,1.5,0.0,-0.9788828200000003
SeS,mp-2559,1.9,0.0,0.3849281306622032
Pb0.99TeGa0.01,N/A,0.42,N/A,N/A
BaRh2Ge4Se6,N/A,1.09,N/A,N/A
CsGeI3,mp-28377,1.6,0.9905000000000002,-1.1018460429310366
RbBiS2,mp-30041,1.36,1.339,-1.0293574356250002
Rb1.45Pb3.1Sb7.45Se15,N/A,0.45,N/A,N/A
SmTe,mp-342,0.62,0.0,-1.614376085
MgSiN2,mp-3677,4.05,3.9662000000000006,-1.3460087593750005
CoSb3,mp-1317,0.5,0.16330000000000044,-0.14788407500000034
MgTe,mp-13033,3.6,2.3186,-1.0715698033333343
Ba2DyInSe5,mp-1106127,2.27,1.1264000000000003,-1.8785040744502304
Ba4AgInSe6,N/A,2.41,N/A,N/A
KH3(SeO3)2,mp-1180593,4.88,4.3334,-1.4038619994322918
ZnTe,mp-2176,2.3,1.0732999999999997,-0.6841630333333328
PPdSe,mp-3123,0.15,0.9677000000000002,-0.44508496817956456
B2O3,mp-306,4.89,6.3017,-2.5623536453333333
BiFSeO3,N/A,3.83,N/A,N/A
KCl,mp-23193,8.5,5.027,-2.175260748125
Pb0.9Sn0.1Te,N/A,0.16,N/A,N/A
Zn(InSe2)2,mp-22607,1.82,0.9929000000000001,-0.8611685975297608
ZnSi(AgS2)2,mp-1189914,3.28,1.6859000000000006,-0.6014898295312499
Cd3As2,mp-570634,0.43,0.0,-0.0658399168749991
Bi2Te3,mp-34202,0.25,0.3388,-0.5090930180000051
MoO3,mp-715584,3.66,1.9098000000000002,-1.9214148340624995
Zn2In2S5,mp-560806,2.65,0.0,-0.769704392911701
K8Zr6Se30,N/A,1.81,N/A,N/A
PbO2,mp-20725,1.7,0.0,-0.9788828200000003
Si2Te3,N/A,2.18,N/A,N/A
LaVI5O16,mp-1202389,3.58,2.3631,-1.4225861066304346
KBiS2,mp-1223443,0.9,1.4158000000000004,-1.049449788062498
CdSe,mp-1070,1.7,0.5724,-0.8376061936718759
BAs,mp-10044,1.45,1.2036999999999995,-0.04163711479166565
CdSb2Se3Br2,mp-567556,1.4,1.1429,-0.8164079771289061
La2Fe(SeO)2,mp-1078132,0.7,1.1414,-2.600127722812501
Ba(ZnAs)2,mp-7427,0.23,0.2974000000000001,-0.6732129104999999
ZnSnAs2,mp-5190,0.67,0.0,-0.1867147650000005
YbSb2S4,N/A,1.12,N/A,N/A
HgTe,mp-2730,0.15,0.0,-0.19013660875000227
CdTe,mp-406,1.56,0.5846000000000002,-0.5607400050000031
AgCl,mp-22922,5.13,0.9522000000000002,-0.5684399337500015
InCuSe2,mp-22811,1.01,0.0,-0.5557744057812499
TlSbSe2,mp-567318,0.82,0.0,-0.38881093203124806
GeS,mp-2242,1.59,1.2375999999999996,-0.50070603125
Th2GeSe2,N/A,1.98,N/A,N/A
Rb2Cu2Sb2S5,mp-1195291,1.6,1.1696,-0.7969680706818177
GaCuS2,mp-5238,2.43,0.7056000000000004,-0.6983747601562484
Ba1.88Ta15O32,N/A,0.13,N/A,N/A
Cs6Na2Zn4Ge42,N/A,0.3,N/A,N/A
Cu0.35Ga1.65S2.65,N/A,2.53,N/A,N/A
Li4.5Ga0.5TeO6,N/A,4.99,N/A,N/A
KGaSnSe4,N/A,1.73,N/A,N/A
AlN,mp-661,6.09,4.0467,-1.6796721718749996
Cu0.95In1.05Se2.05,N/A,1.07,N/A,N/A
Cu2Te,mp-1861,1.08,0.0,0.08165582833333455
Cd(InSe2)2,mp-22304,1.45,0.9563999999999999,-0.8343265846726184
Cu2SnSe3,mp-1200177,0.83,0.08579999999999988,-0.3417845012812464
Hg0.8Zn0.2Te,N/A,0.08,N/A,N/A
BaSe,mp-1253,3.6,1.9487999999999999,-2.283761781171875
Zn0.3S0.3Ga0.7P0.7,N/A,2.3,N/A,N/A
TeI4,mp-570884,1.1,1.7639000000000002,-0.4656594648333332
KSb(SO4)2,mp-1195296,4.64,4.2351,-1.957964519770832
CdS0.99Se0.01,N/A,2.4,N/A,N/A
RbCl,mp-23295,8.29,4.8388,-2.24487251375
Ba2NdInTe5,mp-1205400,1.37,0.6662999999999997,-1.5349035258333323
Ba2SmGaSe5,mp-1189376,2.27,1.7080000000000002,-1.907945853802083
ZnI2,mp-27161,4.53,2.9076000000000004,-0.9059407622916659
K2NbCuSe4,mp-9003,2.14,1.6164,-1.1693720467343751
InBi2S4Br,mp-1206068,1.5,1.6270000000000002,-0.8133026483333325
Ga0.01P0.01Zn0.99Se0.99,N/A,2.6,N/A,N/A
TiS3,mp-9920,0.9,0.22610000000000063,-1.3410208639583328
Hg2I2Te2,N/A,1.85,N/A,N/A
SbSI,mp-23041,1.92,1.6276000000000002,-0.6224157683333296
Ba3Ta2Se9,mp-1195068,1.6,1.202,-1.5764115959471725
ZnSnAs2,mp-5190,0.66,0.0,-0.1867147650000005
Cs2MgSn3Se8,mp-1195633,1.92,1.4299,-1.0146745573614535
Ce10Se14O,mp-1198305,1.93,0.009299999999999642,-2.217895350312497
KPSe3,mp-569702,2.08,1.4182,-0.7997512216181543
EuSb4Te7,N/A,0.54,N/A,N/A
CsAgSb4S7,mp-554408,2.04,1.6886999999999999,-0.6542815279862949
WSe2,mp-1821,1.49,1.4465,-0.6036195060416674
TlSe,mp-1836,0.79,0.19799999999999995,-0.37315311578124977
Ca3Sb2,mp-1013546,1.4,0.08539999999999992,-0.6723631780000009
TlBr,mp-568949,3.07,2.1678,-1.0309185724999992
Na8CsB21O36,N/A,4.67,N/A,N/A
CuPS3,mp-1105187,2.2,1.1555,-0.30067176578273946
Ag3AsS3,mp-561620,2.2,1.6277999999999997,-0.1596350126339254
SrTe,mp-1958,3.77,1.7616,-2.0176923
ZrNiSb,mp-20697,0.55,0.0,-0.7011985916666674
Mg2Sn,mp-2343,0.34,0.0,-0.1670987783333319
PtS2,mp-762,0.75,1.5467000000000004,-0.4394137552083303
CeMoO4F,mp-1192442,2.52,0.10150000000000059,-2.9251683671428563
Rh0.67S2,N/A,1.5,N/A,N/A
Nd4(GeS4)3,mp-560086,2.62,1.9952999999999994,-1.5571338547368425
GdB66,N/A,1.27,N/A,N/A
Nb3CuO8,mp-27383,1.47,0.5998000000000006,-2.694132278125
BaGa2SnSe6,N/A,1.95,N/A,N/A
Pb0.92Sn0.08Te,N/A,0.13,N/A,N/A
Cs2HgI2Cl2,N/A,2.15,N/A,N/A
TePb,mp-19717,0.25,0.8063000000000002,-0.5038298999999995
ZnS,mp-554820,3.66,2.0195,-0.9622174221205354
Ge0.891Si0.109,N/A,1.13,N/A,N/A
Ba2GaSbSe5,mp-1203387,2.51,1.8066999999999998,-1.4770865288020838
La4InSbSe9,N/A,1.76,N/A,N/A
AlAgSe2,mp-14091,2.55,1.1351999999999998,-0.8526771690885333
Pb0.999Sn0.001Te,N/A,0.23,N/A,N/A
BaF2,mp-1029,9.2,6.6029,-4.163984115000002
Ge0.8Si0.2,N/A,0.86,N/A,N/A
GaSe,mp-568263,2.13,1.2121,-0.6900187082812508
InS,mp-19795,1.8,1.3508000000000004,-0.6828759189062499
Ga0.8In0.2As,N/A,1.07,N/A,N/A
YbS,N/A,1.33,N/A,N/A
TlCu3Lu2Se5,N/A,2.12,N/A,N/A
GaTe,mp-542812,1.67,1.0066000000000002,-0.4429932008333329
LiF,mp-1138,11.7,8.7161,-3.1901320070833328
Cu0.99Ga1.01Se2.01,N/A,1.59,N/A,N/A
Gd3.04Sc0.96S6,N/A,1.5,N/A,N/A
Pb0.999TeGa0.001,N/A,0.3,N/A,N/A
CdTe,mp-406,1.58,0.5846000000000002,-0.5607400050000031
CdSiP2,mp-4666,2.25,1.4257,-0.27258217898809356
Ba2ScTaO6,mp-1205823,4.19,3.0173000000000005,-3.590596679733333
ZnSnSb2,mp-4756,0.4,0.0,-0.10368815624999783
La2MnNiO6,mp-1188812,1.2,0.0,-2.825923718793104
Zn(InS2)2,mp-674328,2.7,1.4023999999999996,-0.8054539316071408
TlPS2,N/A,1.6,N/A,N/A
Mg2Sn,mp-2343,0.31,0.0,-0.1670987783333319
Li2ZnSnSe4,N/A,1.87,N/A,N/A
ZnAs2,mp-7262,1.3,0.22409999999999997,-0.14899074958333358
TlInSe2,mp-22232,1.14,0.7351000000000001,-0.6729150770312486
ZnSnSb2,mp-4756,0.3,0.0,-0.10368815624999783
RbH3(SeO3)2,mp-24022,4.84,4.1504,-1.4029555107031246
Pb0.83Sn0.17Se,N/A,0.04,N/A,N/A
CdTe,mp-406,1.6,0.5846000000000002,-0.5607400050000031
Ga2Te3,mp-38970,1.32,0.6375000000000002,-0.4022364190000019
Ba2ErInTe5,mp-1106146,1.35,0.7491000000000003,-1.5152370283333323
CuI,mp-570081,3.12,1.6315,-0.3687411008333328
SnS0.8Se0.2,N/A,1.07,N/A,N/A
Ga2GeTe3,N/A,0.84,N/A,N/A
Ge0.92Si0.08,N/A,0.72,N/A,N/A
Ge0.93Si0.07,N/A,1.04,N/A,N/A
Er2Se3,mp-209,1.66,0.7923,-2.1738531932708325
Bi2I4O13,mp-1204764,3.3,3.0737,-1.100408244342104
Na(GeP)3,mp-1104707,2.06,1.0854999999999997,-0.21139138627551038
K2Zn(SnSe3)2,mp-1195072,1.71,1.5684000000000002,-0.9805493510056823
PtSe2,mp-1115,0.1,0.6193,-0.4639161260416671
ZnCu2SnTe4,mp-1079468,1.39,0.0,-0.4346893814583326
AlV(TeO4)2,mp-1194859,2.9,2.8360999999999996,-2.1344661259027773
P2Pt,mp-730,0.8,1.0185999999999993,-0.7895928486507936
AlAgTe2,mp-14092,1.8,1.0469000000000004,-0.43926148875000237
In4Bi3S10,mp-1224757,1.42,1.0139000000000005,-0.7414754634803917
NaI,mp-23268,6.0,3.5686999999999998,-1.475365545689655
AlP,mp-1550,2.51,1.6294000000000004,-0.737248783988095
Ag2.7Ba6Sn4.3S16,N/A,1.38,N/A,N/A
SnGeS3,mp-5045,2.23,1.6591,-0.6842915539999993
Ca(SmS2)2,mp-36100,2.05,2.0833999999999997,-2.361394356428573
K8Al8Si38,N/A,1.4,N/A,N/A
BiSI,mp-23514,1.56,1.8668999999999998,-0.7283613416666661
Ce2YbCuS5,N/A,1.37,N/A,N/A
Cu2O,mp-361,2.59,0.5126999999999997,-0.5030930383333327
PbCl2,mp-23291,3.82,3.7939,-1.3087380625000027
Cd(GaSe2)2,mp-3772,2.2,1.3487,-0.8853534391964288
BaBClF4,mp-1103527,6.89,5.9817,-3.4318017341666676
Sn2S,N/A,0.95,N/A,N/A
Pb0.995TeTl0.005,N/A,0.48,N/A,N/A
GaAs0.99Sb0.01,N/A,0.7,N/A,N/A
Cs2Te,mp-573763,3.5,1.7740000000000002,-1.1300462069923374
Th2Se5,mp-2392,0.37,0.5162000000000004,-1.8811138770312499
TiFe2Si,mp-866141,0.4,0.4015999999999984,-0.6748571133333341
Hg0.1Zn0.9Te,N/A,1.74,N/A,N/A
GePbS3,mp-624190,2.4,1.7578999999999998,-0.7319933799999994
KNa2Sb,mp-15724,1.0,0.6720999999999999,-0.5807917109374987
Mn2.04Gd1.47In0.49S5,N/A,1.75,N/A,N/A
KAg2SbS4,mp-9490,2.2,0.5695999999999999,-0.47115229292622196
Cs2NbCuSe4,mp-15223,2.19,1.6350999999999998,-1.220952838585668
Zn(InS2)2,mp-674328,2.9,1.4023999999999996,-0.8054539316071408
GaSb,mp-1156,0.67,0.0,-0.22927192000000218
AlCuSe2,mp-8016,2.5,0.8921999999999999,-0.7563341932812495
La3GaCuSe7,mp-1223193,1.36,0.0,-1.6497715003906162
CdCu2GeSe4,mp-10967,1.2,0.0,-0.5708553555468745
Ba8Al10B12O41,mp-1019529,3.1,4.4373,-3.2454768857394374
Si(Bi3O5)4,mp-23492,3.2,2.3477999999999994,-1.8084032248484867
Ga2(TeO3)3,mp-1181313,4.15,3.7830999999999997,-1.761193612678571
HfS3,mp-9922,2.8,1.1326,-1.373083094609374
Pb0.95Sn0.05Se,N/A,0.12,N/A,N/A
KInSe2,mp-505700,2.68,1.4816,-1.13291374277604
ZnO,mp-2133,3.3,0.7227,-1.647445170000001
VZn2BiO6,mp-1105584,2.4,2.7248,-1.9899104339999993
Hg0.3Cd0.7Se,N/A,0.55,N/A,N/A
TaGaSe2,N/A,2.03,N/A,N/A
KFe2BiO5,N/A,1.76,N/A,N/A
Ga2Te3,mp-38970,1.33,0.6375000000000002,-0.4022364190000019
Cs2Cd3(B4O7)4,mp-1201213,4.76,4.5525,-2.6790950158362645
TlInTe2,mp-22791,0.68,0.5400999999999998,-0.5706006233333358
HfS2,mp-985829,2.9,1.2237,-1.8063539318750017
Fe4I3O24H15,N/A,2.3,N/A,N/A
Cu0.35Ga1.65Se2.65,N/A,1.81,N/A,N/A
KIO3,mp-1200675,3.87,2.8533,-1.3732115182000002
K2AgSnSe4,N/A,1.8,N/A,N/A
SmTe,mp-342,0.35,0.0,-1.614376085
SmB66,N/A,0.8,N/A,N/A
Ag3AsSe3,mp-662599,2.1,0.8906000000000001,-0.30236748243303524