Formula,Material ID,density,density_atomic
TaCu3S4,mp-10748,5.025571147896058,20.64475824221836
TaNO,mp-4165,10.896074306494693,10.716315962100145
TaTl3S4,mp-7562,6.565969587348933,29.158129402995932
TaTlS3,mp-10795,6.718270500255314,23.803537932873546
Tb(CuSe)3,mp-1217841,6.963066032212186,19.979131699368732
Tb(CuTe)3,mp-1217851,7.208168350699238,24.10198094426102
Tb2(MoO4)3,mp-3114,4.4172960016694525,17.638570842091607
Tb2EuSe4,mp-646337,6.763508196295207,27.555655698716468
Tb2O3,mp-1056,8.013812686078552,15.161482173846803
Tb4Al2O9,mp-1200490,6.5418778223386616,14.107299703144689
Tb4GaSbS9,mp-1202576,5.5429422513449325,22.28393747102195
TbWClO4,mp-1103802,5.715600438174673,18.353698763128243
TcS2,mp-9481,4.694071105098641,19.117960567706433
Te2Mo,mp-602,7.23066892428707,26.880025160946165
Te2Ru,mp-267,8.53132679029429,23.11482015242221
Te3As2,mp-484,5.771057633752973,30.652088344633448
TeI,mp-569766,5.119597092881965,41.274206484618695
TeI4,mp-570884,4.305102807150928,49.00250483174358
TeO2,mp-8377,5.657354018806982,15.615076205911963
TePb,mp-19717,7.94335593467838,34.99455923097759
TePb3Cl4O3,mp-1196950,5.84996160550661,24.231132164698682
TeSe,mp-1217322,5.345475456222573,32.08329665021795
Th2Se5,mp-2392,8.26420097312425,24.6536210002623
ThO2,mp-643,9.981284074654347,14.642188245289411
ThSO,mp-8136,8.692176439657416,17.836770829098032
ThSeO,mp-7950,9.41536851374871,19.22360787812222
ThTeO,mp-3718,9.369622464185339,22.19088618894632
Ti(Bi3O5)4,mp-23494,9.052858903741887,15.983830714498506
Ti6H2O13,mp-1191976,3.1568100633284675,12.454355980883813
TiCoSb,mp-5967,7.557042599749188,16.740813965144266
TiFe2Si,mp-866141,6.92322236784906,11.251541740573039
TiO2,mp-390,3.8561390579169474,11.463995375804954
TiS3,mp-9920,3.1228527280544403,19.15080535686719
TiTlPS5,mp-1542940,3.400311642483385,27.075847115106907
Tl2BiP2S7,mp-559093,4.51390215004013,27.71762207702498
Tl2Cu2SnS4,mp-18240,6.129355431106988,23.564512838850444
Tl2GeTe3,mp-29034,6.947759752129458,34.4247371841387
Tl2Hg3S4,mp-1188364,7.826202912871073,26.847363689843394
Tl2Hg3Se4,mp-1105692,8.363910943855155,29.25930725349414
Tl2Hg3Te4,mp-1190100,7.95289577089489,35.285185769336586
Tl2PAuS4,mp-9510,5.870987142438443,27.045227718192134
Tl2S,mp-667,7.990500577138402,30.537014401248708
Tl2Te3,mp-29711,7.5583865249440505,34.780630992550755
Tl2TeBr6,mp-31076,5.5687516222314155,33.655258429539764
Tl2TeI6,mp-31077,5.64612062309539,42.40938785220007
Tl2TeS3,mp-17172,5.701471747341469,30.70532473540096
Tl3AsSe3,mp-7684,7.297571445985277,30.06710836863891
Tl3VS4,mp-5513,6.027814315155005,27.284567535267737
Tl4CdI6,mp-570339,6.373296091594524,40.061868579334266
Tl4CuTeO6,mp-1191858,8.155925954964061,18.742578503132467
TlAsS2,mp-4988,5.264075448285785,27.083914064604393
TlAsSe2,mp-30236,6.058135248733245,29.960911960990416
TlBiTe2,mp-27438,7.765457715019705,35.74084693724409
TlBr,mp-568949,6.905637602678175,34.18005656748869
TlCl,mp-571079,6.469049477403585,30.781766867753348
TlCr5S8,mp-541823,4.547170872082889,18.803775327774527
TlCuCl3,mp-1105457,4.966746229309072,25.02726395214926
TlGaS2,mp-4016,5.570099156202046,25.20846461354558
TlGaSe2,mp-17254,6.256269728893391,28.66710436234439
TlGaTe2,mp-3785,6.916599707810294,31.768998730510546
TlHg6S4Br5,mp-1204377,6.690046525641654,30.028854607706272
TlHg6Se4Br5,mp-1202157,6.963926903174094,31.64337914272139
TlInHgS3,mp-1190524,6.7529038257233,25.245172102704732
TlInS2,mp-20042,6.575468661370863,24.201187469725486
TlInSe2,mp-22232,6.854806571114,28.895000534939324
TlInTe2,mp-22791,6.9792552419133544,34.166102452728865
TlN3,mp-870,5.822987526243125,17.56669020837873
TlS,mp-561066,6.50127913126112,30.19649144836779
TlSe,mp-1836,7.997060555923034,29.41722246687786
Tm(CuTe)3,mp-2514049,7.442324750937269,23.662691774366625
Tm2O3,mp-1767,9.150946297529503,14.003941803917707
UHg3(TeCl3)2,mp-567543,5.445825511295654,33.229045694485166
UHg4(AsCl3)2,mp-570252,5.382776446576297,33.2921336338287
V2O5,mp-25279,3.4375305059565995,12.551321151285189
V2Pb4(Se2O7)3,mp-1203641,5.426534771123412,16.138725243210107
V2Zn3TeO10,mp-554700,4.232091488055301,14.363234706304771
V3As2O9,mp-1216491,4.345672838204343,12.191112307772672
V3Bi(PbO4)3,mp-1216962,5.875469853734954,17.483876525981902
VAg(IO4)2,mp-1198619,5.05118599347163,14.810224807020257
VCu3S4,mp-3762,3.9661354529695454,19.35552080243483
VFeSb,mp-567636,7.969117301040473,15.874212807949958
VGa(TeO4)2,mp-1195697,4.936207297145916,14.124857837364297
VO,mp-19184,5.318032742750917,10.451043175212194
VO2,mp-541404,4.067600255193656,11.286393262601704
VZn2BiO6,mp-1105584,5.950271724644552,13.583323227656786
WO3,mp-2383161,6.712705038560279,14.337602576709996
WSe2,mp-1821,8.65592175403535,21.854242198860273
Y(CuSe)3,mp-1216202,6.035351568315497,20.29807136318332
Y(CuTe)3,mp-1216225,6.544163963101845,24.00934950042195
Y2O3,mp-2652,5.026122832858722,14.920692272925162
Y2S3,mp-541289,3.8050672458027317,23.91541596864251
Y3GaS6,mp-1189598,3.835477197201199,22.89529418992136
Y6Zn(SiS7)2,mp-1216132,3.8052798339531217,20.944706064477252
YCuO2,mp-2918,5.001199948022238,15.310701100137324
YMoClO4,mp-560118,3.7502893397642953,17.982816750970393
YMoO4F,mp-555913,4.356706499932605,14.58381662898084
YN,mp-2114,5.821847704574437,14.6766386197419
YNiSb,mp-11520,7.046821290786001,21.157603743970558
YSbPd,mp-1207056,7.40343023048882,23.706733455468456
YSbPt,mp-4964,9.442610857880519,23.784505060193435
Zn(GaSe2)2,mp-15776,5.104347978029998,24.198820104093436
Zn(InS2)2,mp-674328,4.291947825864141,23.396453016081114
Zn(InSe2)2,mp-22607,5.288812570099574,27.400112278911855
Zn(InTe2)2,mp-20832,5.552410892873276,34.41163832901932
Zn2InCuSe4,mp-1215816,5.313536937770767,24.41578605360869
Zn2InCuTe4,mp-1215701,5.611507582829014,30.316004861300698
Zn2MoSeO7,mp-1191333,4.3291066425469875,14.565887498292227
Zn2TeMoO7,mp-1192126,4.742398328320518,14.844784702994746
Zn3(BO3)2,mp-557683,3.9812910376295285,11.900035409870446
Zn3(PS4)2,mp-30311,2.9722098182768106,22.11952661804084
Zn3As2,mp-680580,5.42354724097907,21.191410763201393
Zn3P2,mp-2071,4.691224769052758,18.27705574591018
Zn6S5Cl2,mp-1215990,3.1839394539263863,25.0210910762251
ZnAs,mp-7372,5.983306791739732,19.472881104903426
ZnAs2,mp-7262,5.121352392989239,23.264342426484763
ZnB12(H5O12)2,mp-1195627,2.241427855784395,9.287388980124348
ZnCu2GeS4,mp-6408,4.443875003832139,18.37522794791075
ZnCu2SiS4,mp-1189702,4.060762574280743,17.831418080361413
ZnCu2SiSe4,mp-1232332,5.078185669069057,21.926068128895338
ZnCu2SiTe4,mp-1078498,5.713784559283442,26.554896054731227
ZnGeN2,mp-2979,6.0526797656450535,11.389711391081992
ZnGeP2,mp-4524,4.179818738428334,19.8634236356311
ZnHg3(SCl2)2,mp-1105779,4.989886939981584,29.055799215647347
ZnI2,mp-27161,4.378271017384577,40.356406903154046
ZnO,mp-2133,5.70421780686615,11.849287064975101
ZnS,mp-554820,4.141139565305906,19.542855586637522
ZnSb,mp-753,6.346784757848934,24.48495170504198
ZnSe,mp-1190,5.274845268778988,22.723923858478194
ZnSi(AgS2)2,mp-1189914,4.364531119583839,20.806093221339644
ZnSiAs2,mp-3595,4.700003754302898,21.49316140740628
ZnSiP2,mp-4763,3.418565574455873,18.876159299976194
ZnSnO3,mp-13334,6.556764826849906,11.757007878380284
ZnSnP2,mp-4175,4.525181829974542,22.57384849034703
ZnTe,mp-2176,5.616959252306423,28.52958071342576
ZrHg4(PCl3)2,mp-1200713,5.177212848669309,28.82340855001919
ZrO2,mp-2858,5.777331384412114,11.805697110602315
ZrS2,mp-1186,3.6186651797200184,23.763033544184378
ZrS3,mp-9921,3.608861478892194,21.559193470251937
ZrSe2,mp-2076,5.139046403440359,26.834637708403644
ZrSe3,mp-1683,5.464371229421456,24.926450227897973