Formula,Material ID,density,density_atomic
LiAsS2,mp-555874,3.0528224898104876,19.852645915678213
LiAsSe2,mp-1078724,4.421161473687972,22.5149192785976
LiB3,mp-1222413,1.7803489422648802,9.181074515248154
LiB3O5,mp-3660,2.4880070232559994,8.852253008858392
LiBi3(ClO2)2,mp-754206,6.788270845459157,18.805950496233997
LiBiS2,mp-1222404,5.445330661763359,21.350231934557613
LiBr,mp-976280,2.9032208475784156,24.8361256015302
LiCa3As2H,mp-1192528,3.1614840263843815,20.861507857570096
LiCdBO3,mp-6126,4.344979659816659,11.348101944272369
LiCl,mp-22905,2.1425657398214,16.428175780340013
LiF,mp-1138,2.5304317804069387,8.51107560207809
LiGa(GeSe3)2,mp-1222398,4.109947041994989,28.10848069295621
LiGaO2,mp-5854,4.2030404435495,10.732636701311426
LiGaS2,mp-3647,2.9237620484129625,19.990848560144048
LiGaSe2,mp-11582,4.165028140620471,23.38134841156587
LiGaTe2,mp-5048,4.598910538235989,29.956721935360704
LiH3(SeO3)2,mp-696288,3.2355399653095818,11.285727664474052
LiI,mp-570935,3.4090510038684037,32.597874242748915
LiIO3,mp-23384,4.259170276463127,14.179217943813644
LiIn(IO3)4,mp-973966,4.799462593368732,15.787837529574217
LiInS2,mp-1188392,3.377928278021819,22.845063685897294
LiInSe2,mp-20187,4.414420042906587,26.301184589008578
LiInTe2,mp-20782,4.704605033033507,33.26289569535109
LiMgAs,mp-12558,3.022463836722795,19.442796443658608
LiMgBi,mp-570213,5.117847218284155,25.981322811118616
LiMgN,mp-37906,2.4675928982460373,10.150766261936482
LiMoIO6,mp-558917,4.157636337427093,14.457293584368607
LiNbO3,mp-3731,4.577485851594526,10.726559048942411
LiSbS2,mp-1079885,3.7826203849741353,21.16280357021169
LiSbSe2,mp-37480,5.189982129861168,22.926156386432975
LiSbTe2,mp-1222285,5.564201590448894,28.642141996664133
LiSiB6,mp-973391,2.3555393777694906,8.80241062173472
LiTaO3,mp-3666,7.452082824503236,10.512489484369373
LiZnBO3,mp-1222376,3.7201891155408826,9.757343367042656
LiZnN,mp-7575,4.982091077680031,9.59427623038902
Lu2O3,mp-1427,9.78462289416088,13.506539211693402
Mg2Ge,mp-408,3.1178885561064233,21.525289545807357
Mg2GeSe4,mp-1192564,4.320046404839095,24.00123095923838
Mg2Si,mp-1367,1.9993371522115477,21.23301612596068
Mg3As2,mp-1990,3.132694630713741,23.61536869115262
Mg3AsN,mp-1206514,3.6111663522785498,14.884228312987654
Mg3N2,mp-1559,2.73722024386655,12.245675261606925
Mg3P2,mp-2514,2.0680734386085926,21.65730534917084
Mg3Sb2,mp-1196139,3.569834467371242,29.438489898748962
Mg5B3O9F,mp-560026,3.0122144608524106,9.706950924343545
MgCu2GeS4,mp-2222834,3.706108854275235,19.731035789435243
MgCu2SiS4,mp-1205334,3.371334784326635,18.947185476761298
MgF2,mp-1249,3.187243199654242,10.819651651535182
MgGeN2,mp-7798,4.412035345023502,11.757516014342135
MgO,mp-1265,3.6289033819523207,9.2213850455102
MgSe,mp-1018040,3.260005132094054,26.299892141933864
MgSiN2,mp-3677,3.1469685467816175,10.606542063595088
MgTe,mp-13033,3.7357481379341437,33.76086631088615
Mn(PbO2)2,mp-21823,7.888239877665714,16.03878844361924
Mn(SbSe2)2,mp-1210700,5.339330465061909,27.29250442095531
Mn11Si19,mp-567968,5.253111010460837,11.990347529292235
MnF2,mp-560902,3.9261829704143527,13.101949362460067
MnI2,mp-28013,4.767267673406124,35.84767805588446
MnO,mp-1232659,5.4848291586156375,10.738201254842725
MnO2,mp-644514,5.001461680242682,9.62132250389411
MnP4,mp-569522,4.1140442471047685,14.436370612027043
MoO3,mp-715584,4.4198179463231755,13.519505055345066
MoSe2,mp-1634,6.5127140791360825,21.575462105090818
Na(GeP)3,mp-1104707,3.4872650536204644,22.708729391624168
Na2Be4B4O11,mp-1020144,2.421470747535384,9.8378504499766
Na2Cd(GeS3)2,mp-1190146,2.96305800606685,25.272659099635824
Na2CdSnS4,mp-2831941,3.0303325160156858,27.76580650718148
Na2EuGeSe4,mp-1221353,4.761360020347146,25.564628362257675
Na2Ga2GeS6,mp-1190388,2.789246223367379,24.3793144893652
Na2Ge2Se5,mp-17964,3.978850703455322,27.176322222543153
Na2In2GeS6,mp-1190145,3.0851529070957584,26.454060492491717
Na2In2GeSe6,mp-1190429,4.0946566279993,30.305325366485757
Na2In2SiS6,mp-1190138,2.9864156623723432,25.07653574326669
Na2Mo2Se2O11,mp-1195277,3.8885471035857653,14.362710565932565
Na2Nb4Se4O19,mp-1192640,3.9076934674797497,15.201657548744016
Na2S,mp-648,1.8890808023843084,22.867559900045947
Na2Se,mp-1266,2.686924163065691,25.73785391163207
Na2Te,mp-2784,3.0055841040984324,31.966676576913542
Na2TeS3,mp-1190141,2.904618695480478,25.704530578023963
Na2TeSe3,mp-573581,4.059082855596543,27.98596478092504
Na2Ti3O7,mp-3488,3.456687956033042,12.072714741940706
Na2Zn(GeS3)2,mp-1190399,2.8012734883031762,24.199358859227754
Na2Zn(GeSe3)2,mp-1190476,4.031300660981383,27.35199168253178
Na2Zn(SnS3)2,mp-1190487,3.0622635428687723,26.679056298329773
Na3MoO4F,mp-1194849,2.9279874008081905,15.621517348435987
Na3Sb,mp-7956,2.728208035261483,29.022114765484005
Na3Zn(BO2)5,mp-560158,2.7379064468466967,11.122158438457962
Na4Mg(GeSe3)2,mp-1103730,3.773932717271349,24.88734487461081
Na4Mg(SiSe3)2,mp-1103351,3.517376320721198,23.466620754553837
Na5Gd(MoO4)4,mp-556070,4.112311992161791,14.163166545223874
NaAsS2,mp-5942,2.8533793246114985,23.575206227744808
NaAsSe2,mp-984519,4.025444214952513,26.38329836824124
NaBiS2,mp-1221125,5.162600272406609,23.809992676767312
NaBiSe2,mp-1221101,6.024334776269959,26.86719288588366
NaBr,mp-22916,3.2889280951307467,25.974894959260983
NaCdAsS3,mp-1192203,3.621194155299142,23.42616111575916
NaCl,mp-22862,2.224545043829438,21.812662732751388
NaF,mp-682,2.918620456906104,11.944513130030133
NaH3(SeO3)2,mp-1220990,3.101025949304965,12.49142194420481
NaI,mp-23268,3.7323303560221612,33.344481388298945
NaIn(IO3)4,mp-1196607,4.812457525080687,16.05285221709528
NaIn(TeO3)2,mp-1194878,5.135168231079662,15.812734661839801
NaIn3S5,mp-1195769,4.402145592724887,22.120038236939475
NaInS2,mp-20289,4.009346842222601,20.908988926835274
NaInSe2,mp-22473,5.105290087782719,24.046993683231964
NaInTe2,mp-22483,5.1327845960283245,31.786096910814045
NaLa2TaO6,mp-13019,6.719340996291562,14.277711545839363
NaNb2PS10,mp-557436,2.6450038707838868,25.131201424139817
NaNbSe2O7,mp-1190450,3.831977619992375,15.198793788690155
NaSb,mp-7944,4.0300177859408866,29.821536719925312
NaSb(PS3)2,mp-554384,2.773745454166595,23.891883823716178
NaSbF6,mp-5955,3.039349918240008,17.67023387518025
NaSbS2,mp-5414,3.5849119614937073,24.18839157261431
NaSbSe2,mp-1220879,4.884897314723899,25.72188030715318
NaSbTe2,mp-1220883,5.235361866714497,31.713768478427987
NaSc(SeO3)2,mp-1194561,3.55137060646393,15.049529301443036
NaSm(PS3)2,mp-561232,3.1333939065656304,22.66524669278686
NaY(Te2O5)2,mp-1195227,4.585829383228455,17.70430119686932
Nb2AgPS10,mp-554930,3.1557522662200452,24.25397927217882
Nb2O5,mp-581967,4.3004206622122565,14.662601818801999
Nb2Pb2Se4O15,mp-1199265,5.029642012956659,16.59428177500338
Nb2Tl3CuSe12,mp-570757,5.840488900551256,28.589913473700634
Nb2Tl4S11,mp-17803,4.947358978950995,26.77355035581565
Nb3CuO8,mp-27383,5.374651882707169,12.107538669234282
NbAg2(PS4)2,mp-554336,3.5974045704370456,22.266932867207704
NbCu3Se4,mp-4043,5.4738474183337145,22.728555959703698
NbCuO3,mp-17272,4.863962376053679,13.95973689888928
Nd10Se14O,mp-1202414,6.584323485160012,25.863788160257272
Nd2HfS5,mp-1196123,6.11120088207798,21.306256250590668
Nd2O3,mp-1045,6.487107728262267,17.226223510402143
Nd2S3,mp-438,5.354881460522223,23.85765258521059
Nd2Se3,mp-32688,6.517396416166739,26.771041393806893
Nd2ZrS5,mp-1196300,5.195530650205344,21.574935125196383
Nd4(GeS4)3,mp-560086,4.498184068338872,22.920182547790276
NdCuSO,mp-542314,6.463398253799101,16.433031386919676
NdCuTeO,mp-974307,7.29752149486508,19.989406869907018
NdF3,mp-254,6.550113185162411,12.754063889740513
NdLuSe3,mp-13327,7.110119240815493,25.974459154094784
NdMoO4F,mp-1192562,5.066537891481002,15.131485141862013
Ni2Te3O8,mp-17360,5.745923734484667,13.964692458338769
NiO,mp-19009,6.762154477618838,9.17091681388321
NiS2,mp-1180046,3.9407906041914456,17.251449812778926
P2Ir,mp-10155,9.202463695856821,15.287577160299326
P2Os,mp-2319,9.447313995231188,14.774944869050818
P2Pd,mp-28266,5.538126998604,16.82764174116311
P2Pd3S8,mp-3006,3.355390565467712,24.277157028513688
P2Pt,mp-730,9.109869824238285,15.617160112582361
P2Rh,mp-15953,6.04928689916941,15.084140834116804
P2Ru,mp-1413,6.197070793396386,14.560479521543114
P2Se5,mp-28860,3.720943185169942,29.11885007303911
P4Os,mp-1103842,6.680598971005209,15.615872656493675
P4Ru,mp-27173,4.8002002274080775,15.564486193329225
PH6NO4,mp-1220029,1.7413170139172724,9.140814601223637
POsS,mp-1102534,9.230866410680678,15.186825553153591
POsSe,mp-1101841,9.862299404533555,16.846431470450717
PPdS,mp-7280,5.015562776918197,18.701317412385034
PPdSe,mp-3123,5.894556122281345,20.31613953360943
PRuS,mp-1095584,6.0442348345432,15.028591593593426
PSe,mp-28885,3.169265900767657,28.79993541960136
Pb2O3,mp-20078,9.837550822423589,15.610191790325237
Pb2SeN2O9,mp-1192446,5.351782835590682,14.746348374626175
Pb3O4,mp-22633,8.662164587521179,18.77560390468158
Pb3Se2(BrO3)2,mp-1194412,6.446903546717075,20.513086993518627
PbBr2,mp-2456335,4.794035014492292,42.3742644009644
PbCl2,mp-23291,5.772894416406985,26.665184125740783
PbI2,mp-567503,5.697440270130672,44.78756064866406
PbN6,mp-667338,4.529275318381045,15.253645793803184
PbS,mp-21276,7.445972212994699,26.679449533579113
PbSe,mp-2201,8.046470006595401,29.527224914078356
PbSeO4,mp-22342,6.415916467935371,15.104373037813922
Pd(IO3)2,mp-1198404,5.3168975273217685,15.83170545416583
PdS2,mp-13682,4.711000020437429,20.038557742872722
PdSe2,mp-2418,6.3594820579421425,23.007476230807082
Pr10Se14O,mp-560835,6.35968924042202,26.429093320437886
Pr2S3,mp-15179,5.137654200236373,24.4353102121317
Pr2Se3,mp-32689,6.297756108096,27.35303795599692
Pr2Te3,mp-32581,6.610114466259504,33.39184746477134
Pr2Te4O11,mp-2980,6.071020016028592,15.57784908250956
PrBN2,mp-9028,5.921697975730973,12.599937204170885
PrCuSO,mp-6166,6.267240646514073,16.726503364757566
PrF3,mp-2651,6.278134809847106,13.086109159451846
PrLuSe3,mp-13326,6.987287394207647,26.272590170849707
PrMoO4F,mp-1192358,4.9277515940121654,15.397137480597223
PrTl2InSe4,mp-1219751,6.796744442549593,29.938598051110255
PrTlSe2,mp-999289,6.624028139229765,31.53675617209342
PtS,mp-288,10.100456437172683,18.67191798634727
PtS2,mp-762,7.051273539602691,20.347859678215684
PtSe2,mp-1115,8.416136651043896,23.216390012447494
Rb2AgPS4,mp-1105212,3.1755463320233033,28.632021402273537
Rb2BaNb2Se11,mp-571293,4.712577199552886,30.00891488081661
Rb2Cd(IBr)2,mp-1103709,3.9177527311177758,42.201131457451325
Rb2Cd(PSe3)2,mp-541897,3.920422764694838,31.538142514301637
Rb2Cd3(B4O7)4,mp-1200744,3.271749159755612,11.695427957689612
Rb2Cd3S4,mp-18556,4.181207477565439,28.083715026552525
Rb2Cd3Se4,mp-16818,4.8587579360266036,31.290540813796262
Rb2Cd3Te4,mp-29901,5.045938982790017,37.24387644710742
Rb2Cu2Sb2S5,mp-1195291,4.0350237074357365,26.25842118639076
Rb2Cu2SnS4,mp-18006,4.054521496328551,24.80056474735746
Rb2GeB4O9,mp-1020707,3.136360480732156,14.255851127861773
Rb2Hg3(GeS4)2,mp-1209424,4.406477533966144,29.506749517530576
Rb2Mo3Se3O16,mp-1194625,3.8875800334730006,16.93654467331738
Rb2NbCuS4,mp-15221,3.20749258149302,29.486477839926287
Rb2NbCuSe4,mp-15222,4.098099135014877,32.579287199098154
Rb2Sn2Hg3S8,mp-561434,4.408527770238263,31.80675593541471
Rb2Sn3(SbS5)2,mp-1194540,3.5654995585972498,29.894983279171534
Rb2Te,mp-441,3.158986458882483,52.308974521133734
Rb2TeBr6,mp-570324,4.027617410689114,35.638172268852344
Rb2TeI6,mp-28070,4.362730964213464,44.826891483432675
Rb2Ti(AgS2)2,mp-1209316,3.7931905748497603,27.375070250587676
Rb2Ti(CuS2)2,mp-7129,3.800179492196923,23.020907843514042
Rb2VAgS4,mp-8901,3.189092121661404,29.810039360184767
Rb2VCuS4,mp-15219,3.200712305196358,26.82750288220812
Rb3Bi2Br9,mp-1195363,4.30988809516592,38.34971167830007
Rb3Bi2I9,mp-29895,4.393114722569822,49.04389776721344
Rb3Cd(BO2)5,mp-1200569,3.2411113933876408,15.71695190999344
Rb3Na(MoO4)2,mp-1104938,3.6261032230269685,19.602084373893696
Rb3Nb2AsSe11,mp-683902,4.239804284426313,31.924410138072584
Rb3Sb,mp-16319,3.166973696862201,49.57059636147694
Rb3Sb2Br9,mp-1194576,3.9480290760955437,36.623984112235824
Rb3Sb2I9,mp-1209693,4.074595547815445,47.79985041214542
Rb3Ta2AsS11,mp-1209358,3.6547831776456174,27.95397486806036
Rb3Zn(BO2)5,mp-1020643,3.0652019102901966,15.27878724203687
Rb4Ge(PSe3)4,mp-1195251,3.613789180140341,32.51353900683452
Rb4Ge3B6O17,mp-1020896,3.478982393240664,14.265832209465588
Rb4Mo5(PO11)2,mp-1199088,3.6281350461029493,17.135485157076673
Rb4Ti3S14,mp-542067,2.862230239415652,25.81367236388133
Rb5Li6(BO2)11,mp-1020620,2.760280593656304,12.850543959543772
Rb7Th2(P2Se7)3,mp-585963,4.032510964587649,33.24447241357014
RbAg2SbS4,mp-17756,4.257535546262503,26.87380142248189
RbAg5(PS4)2,mp-1195102,4.255776533341282,23.003251790970353
RbBi3Se5,mp-1209327,6.384470556501388,31.99715070985601
RbBiS2,mp-30041,5.161621539321554,28.83944052247252
RbBr,mp-22867,3.326427543971318,41.276464132165934
RbCd(BO2)3,mp-1197285,3.4041118632611513,14.470401348221111
RbCl,mp-23295,2.7716925421197955,36.22221969305402
RbF,mp-11718,3.8835717641775656,22.333849106778406
RbGaSnSe4,mp-1209628,4.139294045385822,33.797607129221696
RbGeB3O7,mp-1199892,3.238362699988925,12.927670809749415
RbH2(IO3)3,mp-1192404,4.271443637659398,15.866114655480121
RbH3(SeO3)2,mp-24022,3.163872037503767,14.975897865740748
RbHgSbTe3,mp-1219595,5.894123496652014,37.123182788050755
RbI,mp-22903,3.506111301341046,50.29110896488622
RbInS2,mp-601861,3.6345482043226403,30.201330471012483
RbInTe3O8,mp-1192556,4.942539870061224,18.3770009730204
RbMoPO6,mp-1198591,3.563939064404949,15.96465920075957
RbNa2Sb,mp-975275,3.4537247930583703,30.43530556298051
RbNb3(TeO6)2,mp-1201687,4.8181113709505485,15.535452845245146
RbNb4Br11,mp-1201070,4.950316943343634,28.010102556144073
RbPSe6,mp-17945,4.004124228298113,30.595103167100575
RbSbS2,mp-10621,3.6852888012734573,30.56749770675529
RbSbSe2,mp-1189259,4.470102607251972,33.9109770097535
RbTa3(TeO6)2,mp-1204836,6.6239927752104375,14.97851880966164
RbTbSe2,mp-10782,5.405723540926321,30.89580411965666
RbV(CuS2)2,mp-15998,3.451061205399365,23.56285881043658
RbY(TeO3)2,mp-1194706,4.602726630487341,18.961143476980943
ReS2,mp-572758,7.113031380529443,19.480413065205344
ReSe2,mp-541582,8.62376120443585,22.087668161850512
Rh2S3,mp-974381,6.1448831192557245,16.322288044051223
RuS2,mp-2030,6.146853388312788,14.875960998402613
RuSe2,mp-1922,8.078168322945961,17.745896333006744
Sb2O3,mp-2136,5.832523086050206,16.599243674926626
Sb2Os,mp-2695,11.074427020701247,21.679340423704144
Sb2S3,mp-2809,4.375422722175947,25.785395598507144
Sb2Se3,mp-2160,5.506812533083567,28.972221690937097
Sb2Te3,mp-1201,6.120536415946441,33.98489143805178
Sb3IO4,mp-1209215,5.33735097648844,21.629691851019313
Sb5IO7,mp-556869,5.225534520126911,20.72131656404113
Sb8I2O11,mp-1219562,5.3479747970104645,20.757314319137645
SbI3,mp-23281,4.741073521538678,43.99724679664578
SbOsS,mp-1102833,10.042148323235562,18.963962363748667
SbOsSe,mp-1101771,10.542719681196585,20.525625509615118
SbPb2S2I3,mp-578882,5.941181299600147,34.273370997836146
SbPbBrO2,mp-1206466,7.066364340245682,20.71984593948095
SbPbIO2,mp-1219447,7.4047476439307545,21.88098927741931
SbRuSe,mp-1102395,8.212739944046893,20.339703449495243
SbSBr,mp-22971,4.591719201212127,28.175077677143673
SbSI,mp-23041,4.890449799560453,31.7736453146437
SbSeBr,mp-1209072,5.070301437854808,30.635069777541844
SbSeI,mp-22996,5.387431489874499,33.66064345824241
SbTeI,mp-28051,5.5049912426188445,37.83244600351152
SbTeOs,mp-1103213,10.823599196577488,22.480395385098646
SbTeRh,mp-1219458,8.73314564238582,22.326839549709643
SbTeRu,mp-1102857,8.70378741132592,22.285421185396036
Sc(CuSe)3,mp-1219527,6.103902576604674,18.362055586077815
Sc2O3,mp-216,3.818904932303188,11.993227722986564
Sc2S3,mp-401,2.883972633977312,21.431385871831516
ScAg(PSe3)2,mp-13383,4.075887198057913,28.05116100153087
ScAgO2,mp-11022,5.53811517415263,13.85424716387072
ScCuO2,mp-3642,4.5624290881974545,12.784139580637918
ScNiSb,mp-3432,6.6522731462277545,18.755542169505357
ScSbPd,mp-569779,7.085385842478886,21.33748076443217
ScTlS2,mp-13312,5.59073709680138,23.276352638730152
ScTlSe2,mp-13313,6.4477421898270135,26.221187659523764
ScTlTe2,mp-13314,6.5605469851542555,31.925961129972773
Si(Bi3O5)4,mp-23492,9.18901302686875,15.638673190228793
Si3N4,mp-988,3.2020796398588742,10.392616506468475
Si3Ru2,mp-22192,6.914050613111794,13.756699318504605
SiAs,mp-1863,3.5590785713465807,24.029718683965005
SiAs2,mp-978553,3.9861830117278756,24.706806532303904
SiB3,mp-569128,2.4689221874015743,10.175830369910996
SiGe,mp-1219182,3.9285444703441104,21.287607791565573
SiP,mp-2798,2.259448359192474,21.70224678881688
SiP2,mp-9996,2.2756147276297805,21.899335861633904
SiSe2,mp-1250007,3.5759034017657996,28.7917359288793
SiSn,mp-1009813,4.361247561367914,27.94609330485066
Sm(CuTe)3,mp-1219189,6.910809723997417,24.845028571759133
Sm(ErSe2)3,mp-13282,7.174218771502713,26.05992391665154
Sm2Mn3(SbS3)4,mp-1192255,4.803028650620211,22.017147419202722
Sm2O3,mp-218,7.079480081162786,16.358833917061403
Sm2S3,mp-1403,5.745705003776228,22.94210590994024
Sm2Se3,mp-15081,6.868940343675141,25.99253327410699
Sm2Te3,mp-1106376,7.076621181130209,32.077784969723616
Sm2ZrSe5,mp-1198078,6.760978480378132,24.153662654094187
Sm3B(SO)3,mp-1105337,5.697334235137298,17.66486658869425
Sm4GaSbS9,mp-1199065,5.183655835714276,23.096778821196185
Sm4InSbS9,mp-1196183,5.24194339014166,23.792299341589587
SmBiW2O9,mp-1200917,7.582166361792146,14.673647102952511
SmCuSe2,mp-11793,7.048720440069294,21.89871212183944
SmCuSeO,mp-9194,7.4062054656101095,17.31261255856832
Sn2SbS2I3,mp-1219046,4.73121652507062,35.2740219056562
Sn2WO5,mp-557633,6.151812947164751,16.912836062626322
Sn3Ir2Se3,mp-1194504,8.824949521283822,22.989989114091415
Sn3WO6,mp-556980,5.935831753975785,17.791054329288023
SnBr2,mp-29862,4.652505947406003,33.135549241598085
SnCl2,mp-29179,3.783777170456364,27.738135859838835
SnGe,mp-995181,1.530941159943396,103.77412232017396
SnGeS3,mp-5045,3.5901240564423698,26.599621539465964
SnI2,mp-27194,5.117978698029424,40.28818728486138
SnI4,mp-23182,4.1437086996951304,50.198601717214196
SnO2,mp-856,6.873191556302777,12.136906512323106
SnPbS3,mp-1188095,5.558311572013088,25.22067479039631
SnS,mp-2231,4.90139839037615,25.540443545479764
SnS2,mp-1170,4.169006438095262,24.275405299034816
SnSe,mp-691,5.8029379989225,28.282118243876628
SnSe2,mp-665,5.5406012757769405,27.6356842353206
SnTe,mp-1883,6.324705070463654,32.33410672414661
Sr(LaS2)2,mp-34141,4.794566938256253,24.426251727175323
Sr(NdS2)2,mp-37108,5.098063552494077,23.468746435718778
Sr(PrS2)2,mp-38240,4.947127512790547,23.865002953055132
Sr2Be2B2O7,mp-556498,3.593061787951688,11.620699848993063
Sr2ScSbO6,mp-1106218,5.389964205263415,13.492425843452347
Sr2SmTaO6,mp-1208761,6.716446697084901,14.896988860652034
Sr2TiO4,mp-5532,4.9871465095478476,13.656489697718376
Sr2V3Se5O18,mp-1197632,3.90646076367928,15.346025112641229
Sr3Ti2O7,mp-3349,5.022340116866562,12.965946966620686
Sr4Te3(ClO2)4,mp-1218587,4.266658761153353,20.546898466877657
Sr4V2(Se2O7)3,mp-1204879,4.018808930317438,15.802840049175515
Sr5V3O12F,mp-40674,3.9772542854929176,15.943187814873557
SrBiClO2,mp-547244,5.777712014833325,20.926030886609208
SrCrO4,mp-510607,3.926545563854614,14.351397763698166
SrO,mp-2472,4.987595380591106,17.249200128305095
SrPbO3,mp-20489,7.669326838228552,14.845188524341973
SrS,mp-1087,3.593405710633063,27.653657030423094
SrSe,mp-2758,4.46861550539798,30.950592793236133
SrSeO4,mp-4092,4.371653066875919,14.5971903848752
SrSnO3,mp-2879,6.345516909051056,13.31087499698159
SrTaNO2,mp-2583419,7.80119074770591,13.391837315502574
SrTe,mp-1958,4.728243242961414,37.79217772326529
SrTh(PS4)2,mp-1194714,3.434406494244769,25.711197927129138
SrTiO3,mp-4651,5.093987781835845,11.962507795144642
SrZrS3,mp-558760,3.9582074137901837,23.07675958300889
Ta2Mn3O8,mp-31909,6.71316414754598,12.457307915465448
Ta2O5,mp-10390,8.7289892060389,12.00892097923963
Ta2Tl4S11,mp-18344,5.58284433247195,26.806754130024814
Ta4Cu2O11,mp-676563,7.935946170711641,12.639207841870723
Ta7Cu3O19,mp-28752,8.363505379002003,12.05831611497077