Formula,Material ID,density,density_atomic
CsGeI3,mp-28377,4.325382720624483,45.01362335792811
CsH3(SeO3)2,mp-1228884,3.5261380115882166,15.29893720380548
CsI,mp-614603,3.6223016232993785,59.551159741948986
CsInHgS3,mp-1194853,4.789039780228177,31.46690491786353
CsInS2,mp-559459,3.9959075810097167,32.39844950337671
CsInSe2,mp-1200720,4.629128688764158,36.377623321714985
CsInTe2,mp-1199743,4.683208109241317,44.58076706762912
CsInTe3O8,mp-1192413,5.055640626774011,19.164425930883937
CsK2Sb,mp-581024,3.4469783762800636,40.08804093261288
CsLaHgSe3,mp-11124,5.715663491553581,34.34388914338964
CsLi(B3O5)2,mp-1019715,2.377491541390018,14.15145381120075
CsLu7S11,mp-1202825,5.8571032670137155,25.521583968468125
CsLu7Se11,mp-1203743,6.730183482079323,28.909427511654197
CsPPbO4,mp-1192530,5.391094083977766,19.14432621120589
CsPSe6,mp-1225967,4.071602890343415,32.50638795068488
CsRb2Sb,mp-984761,3.9678986349033085,44.5277991257976
CsSb,mp-573514,4.360504911769052,48.490018971418884
CsSb(SO4)2,mp-1195448,3.6628428643168633,16.87926927149252
CsSbS2,mp-561639,3.94434462996929,33.552614679772084
CsSbSe2,mp-2969,4.635730888484479,36.947478060721934
CsSc(SeO3)2,mp-1194629,3.894480792191074,18.410255007106063
CsSmCdSe3,mp-510062,5.167033420505383,33.880972398377885
CsSmHgSe3,mp-7212,5.900862462338827,33.80323306414872
CsSmZnSe3,mp-505709,5.014585760378163,32.316928039674345
CsTbZnTe3,mp-638078,5.426832808612629,37.74039865829938
CsYCdSe3,mp-11116,4.786701643970068,33.01987303807214
CsYHgSe3,mp-11123,5.534457439856658,32.96807228714284
CsYZnSe3,mp-574620,4.652519107341447,31.176265518484765
CsZn2B3O7,mp-1195000,3.424413626885145,15.224453972761093
Cu2GeS3,mp-15252,4.491883289283199,18.232825473379346
Cu2O,mp-361,6.20494716806907,12.764484711878117
Cu2Se,mp-1097707,6.684578452144643,17.062028079536177
Cu2SnSe3,mp-1200177,5.543609875520027,24.097183836955878
Cu2WSe4,mp-1025340,6.004547168596251,24.76169577650098
Cu3Hg2(Te3O8)2,mp-1194777,5.920688448138194,16.759360322319168
CuBS2,mp-12954,4.097111183417321,14.032025457777936
CuBi(PSe3)2,mp-683998,4.903230080647888,27.371834151745055
CuBiPbS3,mp-624191,7.005217819124041,22.753039441071692
CuBiSeO,mp-23116,8.627813976854387,17.681898594411855
CuBr,mp-22913,5.264051278564948,22.625570734248974
CuCl,mp-1225654,4.207638995500521,19.53491105464694
CuHg(SeO3)2,mp-1194904,5.598589093228765,15.365411435290332
CuI,mp-570081,5.728773114188356,27.60193495044158
CuN3,mp-27954,2.784706971094685,15.737439789732358
CuP2,mp-927,4.365565051390864,15.911410989887235
CuPS3,mp-1105187,3.013374958658294,21.018911832952057
CuSbPbS3,mp-649774,5.634736879714322,24.00310548980563
CuSbS2,mp-4468,4.95091915212826,20.915218461928706
CuSbSe2,mp-20331,5.942303001166693,23.97808482506493
Dy(CuSe)3,mp-1225403,7.046771414749179,19.86214438464171
Dy(CuTe)3,mp-1225395,7.2495153007057285,24.081487794215615
Dy2(MoO4)3,mp-1213120,4.698582235793287,16.731243454161266
Dy2O3,mp-2345,8.333958265069626,14.863959313727268
Dy2S3,mp-1270,6.5229295505305265,21.444682078459735
Dy2Te3,mp-1188427,6.6862220731949575,35.156760827654
Dy3GaS6,mp-1189242,5.474547205420483,22.737253413373743
Dy4GaSbS9,mp-1196712,5.6752750057133685,22.04324383723445
Dy4Te3S4,mp-1095296,6.327594458003351,27.699532456431452
DyN,mp-1410,10.032311466624336,14.607614199465589
DyPO4,mp-5767,6.0069266051939625,11.862451556120561
Er(CuTe)3,mp-2717767,7.3863406611983535,23.788239892098204
Er2O3,mp-679,8.894209986204963,14.283069428146089
Er2Se3,mp-209,6.781400486450379,27.983266980704645
Er2Te3,mp-14643,6.94923755772658,34.281014349581525
ErBiW2O9,mp-1983109,8.007616105071197,14.163591889700427
ErN,mp-19830,10.767944887452241,13.976612038354036
Eu(BiSe2)2,mp-1193071,7.1608114789340584,29.343183850563943
Eu(DySe2)2,mp-645690,6.895468237894899,27.27426951685366
Eu(ErSe2)2,mp-1193984,7.1014132235907965,26.80124531041644
Eu(GaS2)2,mp-1181942,4.305396067056109,23.123090161615487
Eu(GaSe2)2,mp-1201775,5.30382367690825,27.15998358971124
Eu(HoSe2)2,mp-1193885,6.922423076480214,27.33463376152529
Eu(InSe2)2,mp-1104657,5.679863215708287,29.12862819368552
Eu(LuSe2)2,mp-645692,7.431266361267387,26.10372040108049
Eu(SbS2)2,mp-1194437,5.285111003856964,23.508017476228794
Eu(TmSe2)2,mp-542964,7.252951480039534,26.350859311235297
EuAl2O4,mp-1019732,4.707682088895626,13.60149107856972
EuIn2(GeIr)4,mp-1095411,11.020987702340387,19.73823494105886
Fe2B(PO4)3,mp-1197728,3.1485820899840387,11.937095762306352
FeAsS,mp-561511,6.347305252930267,14.199633928753114
FeAsSe,mp-1101894,7.4074558274239894,15.67156212689838
FeBi(SeO3)3,mp-1197024,4.8191038402896424,15.892256421197077
FeBi25O39,mp-757766,8.849072549468108,17.045459986651714
FeP4,mp-570553,4.142491451453413,14.409945079396177
FePS,mp-1101971,5.074600806071013,12.967268344812672
FeSi2,mp-1714,5.0830939630683405,12.197751043997686
Ga2(TeO3)3,mp-1181313,4.081258145494671,19.362351100976344
Ga2HgS4,mp-4809,4.848774584080167,22.910760801462878
Ga2HgSe4,mp-4730,5.949833585363296,26.149776297334892
Ga2O3,mp-886,5.887587999533202,10.573376293730535
Ga2PbS4,mp-1196984,4.673442147600109,24.105816320531197
Ga2PbSe4,mp-571171,5.8944533104766395,26.661478563737404
Ga2S3,mp-539,3.5717040398816575,21.9106108358102
Ga2Se2O7,mp-1196063,4.864833060487828,12.702692472537173
Ga2Se3,mp-1340,4.965206661647674,25.17131984069082
Ga2SnGeS6,mp-1194838,3.4708725373075526,25.03032833271704
Ga2Te3,mp-38970,5.404814384204681,32.09027447491866
GaAgGeS4,mp-1224946,3.795469258672063,23.65600295398405
GaAgO2,mp-11020,7.234829671833125,12.026281155023767
GaAgS2,mp-5342,4.669724656821038,21.48882029046015
GaAgSe2,mp-5518,5.606598705752502,24.842577653641328
GaAgTe2,mp-4899,5.8639726644300865,30.63907083162283
GaAs,mp-2534,5.05320036242451,23.765929692671918
GaBi25O39,mp-849761,8.950114721352271,16.892638209914452
GaCuGeSe4,mp-1224851,5.2863514708485955,23.41297753110416
GaCuO2,mp-11019,6.267888091990467,10.946016996607094
GaCuS2,mp-5238,4.4131581525774095,18.568830975179047
GaCuSe2,mp-4840,5.545702568288753,21.79754072230163
GaCuTe2,mp-3839,5.910200069415345,27.286214641074213
GaGeTe,mp-8211,5.2004763693287765,28.733528507786527
GaHSeO4,mp-1194398,4.529430053238326,11.191511154635839
GaN,mp-804,6.0809768201203696,11.432080897320857
GaP,mp-2490,4.128066394428307,20.25293335964855
GaS,mp-2507,3.7755762759368254,22.383728755306564
GaSe,mp-568263,4.850188151865577,25.451995088512437
GaTe,mp-542812,5.154297046168311,31.785377065364823
Gd(CuS)3,mp-1226384,5.961722970649835,17.670279307396463
Gd2(MoO4)3,mp-3572,4.307440003770833,18.01243804626086
Gd2O3,mp-504886,7.6327021126009695,15.772721476406687
Gd2S3,mp-669509,6.127634300946648,22.259001058595473
Gd2Se3,mp-1188175,7.244907554259087,25.275354410938156
Gd2Te3,mp-1105966,7.396977716201284,31.30721588099676
Gd4GaSbS9,mp-1199284,5.4358382555315625,22.586528577468822
GdScS3,mp-510490,4.588943873902729,21.595660592103016
Ge(Bi3O5)4,mp-23352,9.20431899497497,15.856243783455243
Ge(SeO3)2,mp-1205339,4.2787773809965755,14.081376040231739
Ge2Sb2Te5,mp-1224375,6.243626979875427,30.34278916335366
Ge3Ru2,mp-21945,9.182948736094252,15.191765964549464
GeAs,mp-9548,4.961487056833643,24.693383125177263
GeAs2,mp-17524,4.888236336998379,25.192592978502685
GeI2,mp-27922,4.739246027910595,38.12710678222574
GeO2,mp-470,6.20512814957392,9.334043879715589
GeP,mp-1095275,3.814043347529473,22.555420057016672
GePb2(SeO3)4,mp-1198509,5.666135918308641,15.345324114275774
GePbS3,mp-624190,4.825704315060559,25.878950185993517
GeS,mp-2242,3.9582906999032064,21.962351447886913
GeS2,mp-572892,2.7686840465107885,27.342945158982406
GeSe,mp-700,5.0642323021222575,24.854480153987478
GeSe2,mp-540625,4.115928916643514,31.005871331350093
H7Se2NO6,mp-24354,2.6438317791447266,10.794295901879705
HfHg4(AsCl3)2,mp-1198529,5.465403924504257,31.397310327945185
HfHg4(PCl3)2,mp-1202310,5.57505764797708,28.765933334977817
HfO2,mp-352,10.24124328616322,11.376381614199502
HfS2,mp-985829,5.79919885634548,23.15722098393303
HfS3,mp-9922,5.431896671846112,20.992905474120512
HfSe2,mp-985831,7.094213797359179,26.247773342779382
Hg3Bi2(SCl4)2,mp-1104411,5.290891542721745,28.612215478194692
Hg3Bi2(TeCl4)2,mp-1192395,5.75111464255587,30.000458388669163
Hg8Bi3As4Cl13,mp-1204118,5.765546742607125,30.778432599162723
HgBr,mp-23177,7.337680531987949,31.738315869464007
HgBr2,mp-571558,5.884107450475566,33.90233571596534
HgBrCl,mp-1224070,5.49035743880987,31.852348553636578
HgCl,mp-22897,6.920946901522058,28.3168349992155
HgCl2,mp-22855,5.308672811812608,28.30774786888784
HgI,mp-22859,7.187592340905009,37.83028695405868
HgO,mp-1224,10.77019190675644,16.69678512811979
HgPS3,mp-27178,4.60007093169168,23.66294941114314
HgSe,mp-1018722,8.307718381660244,27.938097726855165
Ho(CuTe)3,mp-1224142,7.319369962106921,23.93042506678253
Ho2(MoO4)3,mp-1212381,4.774717511651633,16.563891877033715
Ho2HfS5,mp-1195954,6.9666777078264,19.92273199778517
Ho2O3,mp-812,8.612953628233592,14.569900003254528
Ho2S3,mp-878,6.046408249359246,23.401728946775613
HoN,mp-883,10.384513669018196,14.306491456478474
In2As2Cl2O5,mp-1191856,4.2273948581963,18.939675677598817
In2B(PO4)3,mp-1198577,3.7000710418729787,13.098586449074133
In2Bi3Se7I,mp-1198248,6.476221492240727,30.299278323460978
In2HgS4,mp-22356,5.648418624459176,23.455055876381
In2HgSe4,mp-20731,6.005962725997882,29.467661574277034
In2HgTe4,mp-19765,6.1470642745242445,36.29946984920885
In2O3,mp-22598,6.998712419580598,13.174492897705449
In2S3,mp-22216,4.499472952568761,24.04971027997645
In2Se2O7,mp-1199125,5.428309875751703,13.892241008499212
In2Se3,mp-612740,5.191105833931657,29.84597378579141
In3CuSe5,mp-1224175,5.409015905047498,27.383924791661208
In4As5(BrO4)3,mp-1200791,4.434226571834049,19.7474592285166
In4Bi3S10,mp-1224757,5.761206118011645,23.852759679632133
In4Se3,mp-19932,5.777570959445928,28.583133945435854
In4Te3,mp-617281,6.020879476142618,33.17724733524991
In5AgS8,mp-36751,4.834628163004504,23.02407402995431
In5AgTe8,mp-1224268,5.5977006586831015,36.0798207855923
In5CuS8,mp-674514,4.910197383668338,21.599087624886753
In6S7,mp-555853,4.978098660704235,23.436117139680682
In6Se7,mp-1192955,6.006894165950477,26.402634440009674
InAgO2,mp-20329,7.150982639162847,14.785184551452456
InAgS2,mp-19833,4.845347505025015,24.573547332767625
InAgTe2,mp-22386,5.8269639925476975,34.04640501914536
InBi2S4Br,mp-1206068,6.015850800610107,25.565055265981893
InBi2S4Cl,mp-559521,5.98980957658576,24.135822447251275
InBi2Se4Br,mp-571169,6.441284579897618,29.921213006966024
InCuGeSe4,mp-1224210,5.0267899591838905,26.7500053090009
InHg7S6Cl5,mp-1196151,6.071313815649804,27.186511918549716
InP,mp-20351,4.705583122405697,25.724008065729485
InPS4,mp-20790,3.0561298664938237,24.817534864427145
InS,mp-19795,4.920436511985393,24.784890438611942
InSb2S4Br,mp-559864,4.548765447983686,25.850384930377455
InSb2S4Cl,mp-556541,4.241925353843078,25.545183140487715
InSb2Se4Br,mp-570321,5.329025714305604,29.371753101566384
InSe,mp-20485,5.220219864755624,30.820151984410547
IrS2,mp-2833,8.401620928439797,16.888574706054133
IrSe2,mp-1361,9.752430302247923,19.872522340341103
K10Zn4Sn4S17,mp-1224229,2.7011865578554635,29.37712005871516
K2Ag3Sb3S7,mp-1223709,4.0902033848459745,26.836230233248944
K2Al2B2O7,mp-560217,2.471826129617969,13.734283287249745
K2Au(IO3)5,mp-1195201,4.58790585472247,18.091826965750194
K2BaNb2S11,mp-1212599,2.9461332686285986,26.563032527159688
K2Bi8Se13,mp-28800,6.53959469155523,30.652874259212037
K2Cd2Te3,mp-571637,4.343211511741299,37.45840984331018
K2Cd3S4,mp-18101,3.7822732584271366,26.52190477990081
K2Cd3Se4,mp-1198419,4.558188684746677,29.600006664451346
K2Cd3Te4,mp-18531,4.6082359894527585,37.068322970085354
K2Ce(PO4)2,mp-1195550,3.8730994774493355,13.464150285371675
K2FeGe3Se8,mp-1200819,3.8453503657681294,30.340451063658517
K2Ga3CuSe6,mp-10973,4.1697161174434685,27.367958440200578
K2Gd2Sb2Se9,mp-1199482,5.118184116149749,29.13152986363589
K2Ge2PbS6,mp-561132,3.267886836652918,28.782192566355693
K2Ge3(BO5)2,mp-560019,3.4713996328807797,13.442512252786123
K2Hg(PSe3)2,mp-568855,3.9909443804734663,30.808367951376294
K2Hg3(GeS4)2,mp-17792,4.507776025400731,26.566177942604813
K2Ho4Cu4S9,mp-1172870,5.27052475455642,21.236581049249644
K2In2P3Se10,mp-1199715,3.891963504306067,29.87497228123271
K2In3AgSe6,mp-21705,4.575631956806841,30.371837101782422
K2In3CuSe6,mp-21713,4.3513868648379175,30.527536125349105
K2La2Sb2S9,mp-1223734,3.686092510301465,26.672247356532818
K2La2Ti3O10,mp-6548,4.764175477480776,13.523675648114766
K2Mn(SnSe3)2,mp-669410,3.9580466223368003,32.20177633291218
K2MnSnSe4,mp-628305,3.9723384645348903,29.66333744429007
K2Mo2Se2O11,mp-1195788,3.68076241181482,16.028472598924616
K2NbCuS4,mp-9763,2.7522049109512037,27.370079554763322
K2NbCuSe4,mp-9003,3.767752670053107,30.326713862095854
K2Nd2Ti3O10,mp-1223975,4.886071924996966,13.399658509209928
K2PAuS4,mp-9509,3.248325529571162,27.75788124412032
K2PdSe10,mp-505138,3.949648276373425,31.506694938019283
K2RbSb,mp-976148,3.038710899629099,38.99337436301655
K2ReH9,mp-29877,3.148111856404887,12.020856775542887
K2S,mp-1022,1.79720207513612,33.95902569497368
K2Se,mp-8426,2.311697321907826,37.62959095046483
K2SmP2S7,mp-555587,2.4475286378776673,29.11473400387555
K2Sn(AuS2)2,mp-557121,4.572899649961282,29.013762215911754
K2Sn2Hg3S8,mp-18115,4.348283674180082,29.88639374219523
K2Sn3(SbS5)2,mp-1195395,3.3741444768133624,28.90567343307501
K2Te,mp-1747,2.4952208893631918,45.65170903709287
K2TeI6,mp-27688,4.104261957348686,43.48087946224111
K2Th(CuS2)2,mp-555425,4.48291829008372,23.277960265682
K2Ti(CuS2)2,mp-1211474,3.178635900751431,22.139318884170596
K2VAgS4,mp-8900,2.878095043621239,26.3429000636513
K2VCuS4,mp-15147,2.6030074719081777,25.592522399392898
K2Zn(SnSe3)2,mp-1195072,4.042280338826182,31.9217858911266
K2ZnTe2,mp-12535,3.7108482041768958,35.69169323786678
K3B6ClO10,mp-1189091,2.3076682745077526,13.585849334010934
K3Bi2I9,mp-1120792,4.2606273874169585,46.69636683332117
K3Cd(BO2)5,mp-1204785,2.686624820209065,14.435493499861115
K3Cr2(PS4)3,mp-559251,2.06129391532769,28.154585656654422
K3NaSn3Se8,mp-628185,3.8764877863386964,32.21550662026648
K3Nb2AsSe11,mp-542545,4.074784701946772,29.88263498632015
K3Sm(AsS4)2,mp-560964,2.738580489338498,29.192219185991895
K3Ta2AsS11,mp-1211748,3.363809600858748,26.33257544910868
K3Ta2AsSe11,mp-683905,4.692403557791735,29.614860017933132
K3Th2Cu3S7,mp-638086,4.607611653384328,23.941071978956344
K3Ti2P5S18,mp-1211873,2.160345072457682,25.943637315904176
K4Ge(PSe3)4,mp-1195433,3.3211245455033245,30.962620818979488
K4GeS4,mp-556627,2.2675701360599274,29.071712167213345
K4GeSe4,mp-568847,3.0649770747364578,32.80007259366071
K4Nb2S11,mp-15148,2.4440822372811333,27.772806752603987
K5In3P6Se19,mp-1199321,3.7117812682329694,30.177511124079636
K6Cd4Sn3Se13,mp-6296,3.1415918903142805,42.017831849482384
K6CdTe4,mp-17698,3.1790695554002975,40.71367135809704
KAg2PS4,mp-12532,3.6503124457238347,23.54513714995276
KAg2SbS3,mp-1192667,4.3249887176489406,25.931884893294697
KAg2SbS4,mp-9490,3.9210859214592033,26.725088696686996
KAsSe2,mp-14659,3.5143089156410343,32.12344436394889
KAu(IO3)4,mp-557441,4.904763258976577,17.59883109471086
KBaAsSe3,mp-1191826,4.083017594288178,33.09316463837698
KBaB5O9,mp-557420,2.972581913956382,13.07428648962566
KBaSbSe3,mp-1190698,4.3474901830056005,34.06167683081437
KBi3S5,mp-1223584,4.52807326498068,33.671680725020494
KBiS2,mp-1223443,4.756507849741324,27.248706386061876
KBiSe2,mp-36539,5.494115875825066,30.677215296154014
KBr,mp-23251,2.7630562038282562,35.75894835064599
KCl,mp-23193,1.9957638386024725,31.014527801672134
KCu2BiS3,mp-1194436,4.779319152070868,23.396074826327638
KCu2SbS3,mp-1192531,4.097311623659423,22.24065563301728
KCu3S2,mp-9868,4.584443789488176,17.74030081999235
KCu4AsS4,mp-557728,4.172262438318803,19.75900877028204
KF,mp-463,2.5790805387069127,18.702759347064404
KH3(SeO3)2,mp-1180593,2.8835032990387264,14.206778950750769
KI,mp-22898,3.1004771845922225,44.453493500722004
KIO3,mp-1200675,4.037656090559175,17.60214158933388
KIn(TeO3)2,mp-1195253,4.9088372154348106,17.086722060134782
KInS2,mp-505412,3.1786197152159876,28.47732914890234
KInSe2,mp-505700,4.012864701954274,32.259769328992064
KLiCO3,mp-562137,2.1627973058444216,13.570171259750147
KNa2Sb,mp-15724,3.0038813223614054,28.584876907685388
KNb3(SeO6)2,mp-1202434,4.08731250622745,15.070920994076621
KNb3(TeO6)2,mp-1202170,4.579284713118945,15.411545560934732
KP(HO2)2,mp-23959,2.385660174160203,11.840294844695487
KPSe3,mp-569702,3.2783749332146126,31.09503341795216
KPSe6,mp-18625,3.825810071235391,29.505332459206095
KSb,mp-1536,3.4570667075428854,38.632678211568646
KSb(SO4)2,mp-1195296,3.2011454400686317,15.258675959092377
KSb5S8,mp-15559,3.9738039033090344,26.995039733795718
KSbS2,mp-11703,3.126561606741884,29.873220862841276
KSbSe2,mp-9576,3.977084352239109,33.27461614161595
KSiBiS4,mp-866651,3.692352626031423,25.98274447585365
KSm2CuS4,mp-11604,4.567940152318723,24.157029466984437
KSnAuS3,mp-1223460,4.454546546706895,28.018305847074654
KSnAuSe3,mp-1223442,5.287918987697528,30.965742421682837
KTa3(TeO6)2,mp-1200554,6.399932119415574,14.83451880320957
KTaO3,mp-3614,6.981426041917768,12.75092400607338
KTeP2,mp-1188829,3.239213835586062,29.303045618340153
KThCuS3,mp-12365,4.678085717980998,25.490793041099867
KTiPO5,mp-6268,3.0398925306474887,13.515303597342617
KUClO3,mp-1095429,4.627344652503922,21.565807222849983
KV4Ag11O16,mp-553910,5.72396127905017,15.279413498853396
KY(TeO3)2,mp-1194980,4.312778366214509,18.45054780103737
KZn4(BO3)3,mp-6652,3.489521739237472,13.356726310651544
La10Se14O,mp-558535,6.151065714440611,27.109276493222595
La2Fe(SeO)2,mp-1078132,6.283013898050536,19.767954046128263
La2HfS5,mp-1197947,5.8533893507766726,21.86620865040108
La2Mn(SeO)2,mp-1196301,5.798045890874985,21.384305091275028
La2MoO5,mp-1105399,6.066582527361159,15.524930579964751
La2O3,mp-1968,6.615226585908185,16.356773217045408
La2S3,mp-7475,4.927142517339004,25.209397630570916
La2Se3,mp-32798,6.045119341034584,28.27618000172701
La2TiCoO6,mp-1211314,6.332539966707742,12.602645885624604
La2Zn(SeO)2,mp-1196943,5.90879751626913,21.403864401231367
La2ZrS5,mp-1198687,4.963733410030479,22.136131920550564
La3CuGeSe7,mp-510011,5.866857826990432,26.07769012041484
La3LuSe6,mp-645695,6.469328209893499,27.347668075502487
La3Mo4O16F,mp-1198818,4.665310472784239,15.949742356429818
La4Cd4In2S13,mp-1196490,5.16336701863756,23.095733533651636
La4Fe(SbS5)2,mp-1203562,5.109673126945966,22.473993919733246
La4InSbS9,mp-1196663,4.693793145334563,25.490194678539623
La6Sb4(SO4)3,mp-1223262,5.790163945422655,18.453666110941104
La8Sb2S15,mp-1195582,4.754928966575054,25.64341926855344
LaCuSO,mp-6088,6.124617206709288,16.980301580423017
LaCuSeO,mp-552488,6.758638028487416,18.267821356347305
LaCuTeO,mp-546790,6.999248087992701,20.52473999498977
LaF3,mp-905,5.984096220582201,13.590219795030329
LaGaO3,mp-5837,6.9637120671375285,12.23883489030105
LaGaS3,mp-4816,4.34049606706342,23.323199585066106
LaMg2H7Pd,mp-1180682,4.399795488138083,10.32707911846941
LaTaN2O,mp-550514,9.057113041682872,13.342307958564874
LaVI5O16,mp-1202389,4.866746769031425,16.026950509694007
LaZnAsO,mp-549589,6.329918696896234,19.362414244806885
Li2B4O7,mp-4779,2.4072358388353647,8.974013053065772
Li2CdGeS4,mp-1189383,3.0996713203798323,21.91025687327858
Li2CdSnS4,mp-1188784,3.313296097401023,23.383730860279357
Li2Ga2GeS6,mp-554782,2.8395739313520427,22.24084635804584
Li2In2GeS6,mp-1191476,3.2593944109811965,23.553282792662376
Li2In2GeSe6,mp-1191200,4.375023988907741,27.25574038900116
Li2In2SiS6,mp-1191903,3.0712335679088767,22.806333095397836
Li2In2SiSe6,mp-1191817,4.2343075835552195,26.573094487312176
Li2PtO3,mp-531826,7.6862653000641314,9.252414884639649
Li2TeMoO6,mp-1203622,4.319569530413783,12.817348460883078
Li2TeWO6,mp-1196881,5.478207694399647,12.770886058091955
Li2ZnSnS4,mp-555186,3.075305884410742,22.020945101522422
Li3Bi,mp-23222,5.095583576182748,18.72197353023166
Li3PS4,mp-985583,1.8542669866217394,20.155625488648344
Li3ScN2,mp-542435,2.504720864974737,10.363483372581108
LiAlB14,mp-8204,2.5167775565522934,7.6401997086698605