Formula,Material ID,formula_unit_mass,volume,density,estimate_formula_unit_mass
Ca2Bi2O5,mp-28848,3468.6828,928.6532929159865,6.202404431213878,5759.883299043475
Ca2CdAs2,mp-1095180,684.8204000000001,255.47983892331854,4.451118462408131,1137.1710278046385
Ca2Ge,mp-1009755,152.796,92.82338181597505,2.733403182004593,253.7237272202135
Ca2ScSbO6,mp-1189528,685.736624,250.99912946005279,4.536639055282545,1138.692453550395
Ca2Si,mp-1009733,108.2415,92.16840794612506,1.9501176529212305,179.73923937738388
Ca2Sn,mp-22735,795.4639999999999,384.80664678482026,3.4326305408454516,1320.8990480739021
Ca2SnS4,mp-866503,1308.504,753.8747135589316,2.882205718964618,2172.822010802366
Ca3(BN2)2,mp-1227905,1187.2968,784.1174068497802,2.5143590778961924,1971.552720049167
Ca3N2,mp-844,1185.9792,747.4059775130344,2.6349331595232925,1969.3647937750145
Ca3Sb2,mp-1013546,363.754,192.51963991689334,3.1374862735706466,604.0277276320164
Ca3Ti2(SiO4)3,mp-1154470,1968.8692,924.5438456002663,3.5362132787794605,3269.384223625489
Ca4Bi6O13,mp-757343,3244.3731999999995,771.3995751825864,6.983940124616845,5387.408445230054
Ca5B3O9F,mp-6632,395.81600319999995,227.3889049056894,2.8905013495345138,657.2679364990704
CaF2,mp-2741,78.0748064,41.95899220581091,3.0898326992343006,129.6462661444317
CaI2,mp-30031,293.88694,128.07184962611453,3.810445046731192,488.01074503353016
CaMg2N2,mp-5795,116.7014,65.62697637431359,2.9528593961363976,193.78723382691325
CaO,mp-2605,56.077400000000004,27.771067003632275,3.3530837486789946,93.11871345335484
CaS,mp-1672,72.143,46.414057530527266,2.5810342007468723,119.79626988172379
CaSe,mp-1415,119.038,52.40874882176445,3.7716460296003667,197.66724940993078
CaSnO3,mp-4438,827.1448,248.80571219239832,5.520396786842774,1373.5062541350437
CaTaNO2,mp-556340,1068.12552,251.33759566123985,7.056899503339866,1773.6641539924397
CaTe,mp-1519,167.678,65.28162287945732,4.265149322704297,278.4358696093547
CaZnSO,mp-7204,307.10280000000006,142.4077262992574,3.5809587731961825,509.95619686224654
Cd(GaS2)2,mp-4452,380.11699999999996,159.94575929459765,3.9463323764415152,631.1991283787921
Cd(GaSe2)2,mp-3772,567.697,182.5673813806625,5.163480131897585,942.68304649162
Cd(InS2)2,mp-559200,940.614,326.0902033892593,4.789859607424008,1561.9262935908923
Cd(InSe2)2,mp-22304,657.887,206.14609910517117,5.299382669137637,1092.447064908274
Cd(InTe2)2,mp-21374,852.447,255.0671715530382,5.5496030205973765,1415.52154570597
Cd2InCuTe4,mp-1227025,913.586,269.05137805003676,5.638496463737478,1517.0452436988276
Cd4As2Br3,mp-1203526,6713.5936,2075.2664350998953,5.371929243166843,11148.184450075732
Cd4As2I3,mp-27528,7841.604880000001,2357.178208619955,5.524101317610905,13021.291248081205
Cd4P2Br3,mp-28914,6010.428191999999,1951.3556330057995,5.114675485593733,9980.550819810005
Cd4P2Cl3,mp-29746,4943.604192,1836.0709030619535,4.470986320263327,8209.047890623528
Cd4P2I3,mp-568545,7138.439472,2191.528299722998,5.408854459836882,11853.657617815477
Cd4Sb2I3,mp-29044,8591.01928,2566.8585387344656,5.557658484517503,14265.723136353803
CdAg2GeS4,mp-1197203,2116.1895999999997,730.0727936502728,4.813239903877238,3514.0155031326262
CdAs2,mp-471,524.5083999999999,152.66478634811008,5.705092246838502,870.9666889598592
CdBiClO2,mp-550553,777.6863999999999,202.587553572604,6.374422445951032,1291.378648763514
CdBr2,mp-568722,544.438,184.9834976481843,4.887249834906797,904.0605683415706
CdCl2,mp-22881,183.317,78.67112972818981,3.8693360718682586,304.40504007191214
CdCu2GeS4,mp-13982,880.8059999999999,316.66649334072304,4.618779706263253,1462.6127730956791
CdF2,mp-241,150.4078064,39.38870067731385,6.340854969929461,249.75803844880946
CdGeAs2,mp-4953,669.7883999999999,202.40505823068398,5.494970403792506,1112.2098045555072
CdGeP2,mp-3668,493.99704799999995,179.81329023906636,4.561961999018335,820.3013969890752
CdHg4(AsI2)2,mp-570838,3144.46416,817.1130597903378,6.390187402638422,5221.5055812035525
CdHg6(As2Br3)2,mp-567910,8380.2456,2049.636478895984,6.7893625771133435,13915.725206502757
CdI2,mp-570437,1098.65982,341.64690200717655,5.339921249967611,1824.3675520137242
CdIClO3,mp-1191962,1291.06668,453.8556582658537,4.723675073077428,2143.8666597255606
CdP2,mp-913,1394.868192,560.7532228378684,4.130574789836572,2316.233125573709
CdP4,mp-7904,472.612096,206.57294924246142,3.7990978568765787,784.7908487557095
CdS,mp-672,288.952,102.03892478274858,4.702284793707707,479.8160843722032
CdSb,mp-1321,1873.368,471.39929543536505,6.599078064478864,3110.8007501183088
CdSb2Se3Br2,mp-567556,1505.238,488.67870372066494,5.114825926524518,2499.5065035308508
CdSe,mp-1070,382.74199999999996,115.97478237665474,5.480139995990648,635.558043428617
CdSiAs2,mp-3078,580.6794,192.1074097836465,5.019279734997139,964.2408288698479
CdSiP2,mp-4666,404.888048,169.76227734194765,3.9604347433979967,672.332421303416
CdSnAs2,mp-3829,761.9284,227.44602229194646,5.5626907052611525,1265.2118741520314
CdSnO3,mp-754329,558.2384,131.04061486299892,7.073964607426622,926.9766716762773
CdSnP2,mp-5213,586.1370479999999,204.35131321889773,4.76289313366444,973.3034665855993
CdTe,mp-406,240.011,70.71162283069633,5.636239502916919,398.54764191373255
CdTeO3,mp-28290,2304.0735999999997,604.9274931616135,6.3247319197303185,3826.0042251217005
Ce10Se14O,mp-1198305,10090.3976,2563.976631313736,6.5349657277264885,16755.49941232688
CeBiW2O9,mp-1204806,3443.084,706.8481008639984,8.08854898895095,5717.375491585394
CeMoO4F,mp-1192442,1276.2080128,426.5849798303299,4.967810313446201,2119.1932623623525
CeO2,mp-20194,172.1148,40.85964149792201,6.994759103664203,285.80334934004566
CeTl2P2S7,mp-638100,3341.140496,1261.4639118551265,4.398139549191063,5548.094320607301
Co2Te3O8,mp-18855,1257.3231799999999,374.2818961219498,5.578240041435182,2087.8342597317437
CoAsSe,mp-505511,1702.51836,382.505170858071,7.3910066157844465,2827.098248383763
CoP2,mp-14285,483.522876,154.83268856077132,5.185653188975327,802.9086251927874
CoPS,mp-1226003,487.887828,157.60762281838188,5.140340194371183,810.1567985126213
CoSb3,mp-1317,1696.8527800000002,371.00088993935856,7.5948344272688315,2817.690331458815
CoSbS,mp-5881,1702.06556,402.4393002273977,7.023037647410139,2826.346356294406
CrB2(PbO2)6,mp-1197022,6035.243599999999,1461.7089789609408,6.856192250643224,10021.75777424762
CrO3,mp-510421,199.9886,115.10670088636584,2.885052569636943,332.0888831746407
CrPbO4,mp-19146,1292.7748,351.5830524611216,6.105820643767765,2146.7030597160015
Cs2AgBiBr6,mp-1078250,1062.0835038,379.059040582874,4.652655552917027,1763.6311500513093
Cs2AgBiCl6,mp-1078258,795.3775038000001,315.56449890628505,4.185373900842128,1320.7554177546897
Cs2Al2B2O7,mp-1019602,906.7835620000001,433.810303836327,3.470986088472002,1505.7495296517036
Cs2Ba3(P2O7)2,mp-1019605,4102.7142072,1702.7255322919896,4.001065991522453,6812.717220150446
Cs2Cd3(B4O7)4,mp-1201213,2448.0062076,1160.6363711254778,3.5023975158190495,4065.0099429991096
Cs2Cd3Te4,mp-567386,2226.8878076,709.9476291487297,5.208601380765159,3697.8342014550244
Cs2Cu2Sb2S5,mp-1190579,1593.4958075999998,643.5278516798027,4.111806558295951,2646.0620409831167
Cs2Hg3I8,mp-540574,1882.8166638,624.3278026401472,5.007770937421215,3126.490625485377
Cs2Hg3S4,mp-1105419,1991.6818076,544.9709941677509,6.068699958622522,3307.2654497563044
Cs2Hg6S7,mp-17905,3387.6118076,846.7799738595783,6.643120908204285,5625.261748995242
Cs2Li3(BO2)5,mp-966802,1001.3658075999999,563.3324409093786,2.9517331556354462,1662.8070434772587
Cs2MgGe3Se8,mp-1195667,4558.8636152,1893.353603018135,3.9982870184806147,7570.171132340908
Cs2MgSn3Se8,mp-1195633,5111.7036152,2131.4275062781826,3.9823937360843185,8488.183549920053
Cs2NbCuSe4,mp-15223,1476.2065676,568.608805807312,4.31104592618986,2451.2986758712937
Cs2PdSe8,mp-31285,4015.6436151999997,1524.9869794973233,4.372583628733966,6668.133100582456
Cs2Sb,mp-1191118,3100.5672304,1187.825884244079,4.334484610070179,5148.613014698962
Cs2SiB4O9,mp-1226151,481.13500380000005,234.8002430650444,3.4026518017586374,798.9434701186393
Cs2Sn3(SbS5)2,mp-1195304,2372.2218076,1049.1490013489135,3.7546306397809994,3939.1669861602677
Cs2Te,mp-573763,1573.6436152,640.9059681586167,4.077192021558062,2613.0966999452576
Cs2TeBr6,mp-23405,872.8349038,340.0543915722945,4.26219008597576,1449.3764564519527
Cs2TeI6,mp-540957,1154.8377238,417.5463241832438,4.5926716268055126,1917.6531559533203
Cs2Th(PS3)3,mp-640389,3517.4209991999996,1727.2985846132967,3.381473842959487,5840.814982850807
Cs2Ti(AgS2)2,mp-10488,1315.3486076,522.7814447441749,4.178013146940504,2184.1877491177133
Cs2VAgS4,mp-8684,1105.7612076,525.5225312412632,3.4939694768436604,1836.1596835505927
Cs2ZnGe3Se8,mp-1194749,4723.279615199999,1937.4927303872714,4.0481134202487015,7843.190323515012
Cs2ZnSn3Se8,mp-1194701,5276.119615199999,2061.3106229849727,4.2503068889283195,8761.202741094155
Cs3Bi,mp-635413,607.6967557,207.19487266897139,4.870314552127646,1009.1042034859261
Cs3Bi2Br9,mp-27544,1535.8131557,553.1314722726557,4.610617677493076,2550.277744038078
Cs3Bi2I9,mp-669458,3917.6347714,1362.8720035122276,4.773291673624063,6505.385586580261
Cs3Li4(BO2)7,mp-1019615,2178.4468671,1163.0683533975548,3.1102179994535932,3617.396127331928
Cs3Nb2AsSe11,mp-683903,3056.0214314,1163.4542997535273,4.361703743998877,5074.6429752065515
Cs3Nb9(TeO8)4,mp-1201443,4514.5091514,1550.4118043899539,4.835179138340342,7496.518812422912
Cs3Sb,mp-10378,520.4763557,197.57853540566006,4.374317888868654,864.2713218814475
Cs3Sb2Br9,mp-579560,1361.3723556999998,540.7941077469031,4.180171248994283,2260.6119808291205
Cs3Sb2I9,mp-23029,3568.7531713999997,1328.918986147041,4.45930423294189,5926.054060162345
Cs4BiAs3Se7,mp-1204289,12144.6960608,4719.161699070379,4.273373863182977,20166.742260941526
Cs4Ge(PSe3)4,mp-1195417,6702.7074224,3052.5116833296343,3.6462129162907675,11130.107526884985
Cs4Zr3S14,mp-680246,2508.4076152,1249.9837615510462,3.332290360978772,4165.308839996539
CsAg2AsS3,mp-866615,2079.0338076,794.8136593708942,4.343555017706292,3452.316858301947
CsAg5Te3,mp-9206,4220.1858076,1008.0507425298601,6.951816120132551,7007.783401830669
CsAgSb4S7,mp-554408,3809.0746075999996,1478.1981614645667,4.27893726186689,6325.117193513864
CsAsSe2,mp-581864,2925.9764152,1132.0052975561841,4.292116084508582,4858.698145389822
CsAu,mp-2667,329.8720209,78.55971856017129,6.97259852405392,547.7653776827417
CsB3O5,mp-3977,981.3418076,490.28859894433543,3.3236677595937145,1629.5564092076606
CsBi3Se5,mp-567928,4618.5866076,1196.6936053651734,6.408777869298507,7669.343494395364
CsBiS2,mp-541378,1624.0634076000001,555.053003685522,4.858672445781889,2696.820734955319
CsBiSe2,mp-1096942,499.8058519,152.40198758744768,5.445776370331282,829.9471427952438
CsBr,mp-22906,212.8094519,80.9367501905749,4.366105728110078,353.37840862168355
CsCdBO3,mp-1191636,1216.5026076,446.2558606702689,4.5266634739686955,2020.0501045405695
CsCeCdSe3,mp-574426,1244.6249038,416.1543563656901,4.966302153057457,2066.748276023167
CsCl,mp-22865,168.3584519,71.14827813264381,3.9293401598706903,279.56578657224696
CsCu2AsS3,mp-1196438,3448.9124152,1369.2907193393473,4.182496618018807,5727.05380272136
CsErZnSe3,mp-7155,1204.9069038,370.9770828409474,5.393311549203616,2000.794985375948
CsF,mp-1784,151.9038551,54.33221336326164,4.642591754438939,252.24228576069564
CsGaS3,mp-562726,1195.2938076,596.6264354825277,3.3267584966791,1984.8320635848638
CsGdZnTe3,mp-1104469,1476.7289038,448.1598217300752,5.471632923431102,2452.166035537293
CsGeB3O7,mp-558804,1399.8970076,692.3260433453454,3.357642967038711,2324.583670336237
CsGeI3,mp-28377,586.2588619,225.06811678964056,4.325382720624483,973.5057433254044
CsH3(SeO3)2,mp-1228884,779.6913437999999,367.1744928913315,3.5261380115882166,1294.7079362697514
CsI,mp-614603,259.8099219,119.10231948389797,3.6223016232993785,431.42452520524483
CsInHgS3,mp-1194853,4356.0676152,1510.4114360574495,4.789039780228177,7233.420451790693
CsInS2,mp-559459,2494.8276152,1036.7503841080547,3.9959075810097167,4142.758719472112
CsInSe2,mp-1200720,3245.1476151999996,1164.0839462948795,4.629128688764158,5388.694391923423
CsInTe2,mp-1199743,4023.3876152,1426.5845461641318,4.683208109241317,6680.992315114206
CsInTe3O8,mp-1192413,1517.0373037999998,498.27507420298235,5.055640626774011,2519.0997084494325
CsK2Sb,mp-581024,332.8620519,160.3521637304515,3.4469783762800636,552.7304409685867
CsLaHgSe3,mp-11124,1418.5618438000001,412.1266697206757,5.715663491553581,2355.577360018027
CsLi(B3O5)2,mp-1019715,729.4129038000001,509.452337203227,2.377491541390018,1211.2186224420475
CsLu7S11,mp-1202825,6841.557807599999,1939.6403816035775,5.8571032670137155,11360.674015922043
CsLu7Se11,mp-1203743,8904.9378076,2197.116490885719,6.730183482079323,14786.997115163153
CsPPbO4,mp-1192530,1740.3072556,536.041133913765,5.391094083977766,2889.848185811232
CsPSe6,mp-1225967,2550.5568556,1040.2044144219162,4.071602890343415,4235.299300308254
CsRb2Sb,mp-984761,425.6010519,178.1111965031904,3.9678986349033085,706.7271734660042
CsSb,mp-573514,2037.3236152,775.8403035427021,4.360504911769052,3383.055454346345
CsSb(SO4)2,mp-1195448,1787.1626076,810.2049250316411,3.6628428643168633,2967.6533282865257
CsSbS2,mp-561639,1275.1818076,536.8418348763533,3.94434462996929,2117.489208537405
CsSbSe2,mp-2969,1650.3418075999998,591.159648971551,4.635730888484479,2740.4570447630604
CsSc(SeO3)2,mp-1194629,1727.1110555999999,736.4102002842425,3.894480792191074,2867.935380180564
CsSmCdSe3,mp-510062,1265.1129038,406.5716687805346,5.167033420505383,2100.7694004196674
CsSmHgSe3,mp-7212,1441.4709038,405.6387967697846,5.900862462338827,2393.6187491271103
CsSmZnSe3,mp-505709,1171.1089038,387.8031364760921,5.014585760378163,1944.672086003001
CsTbZnTe3,mp-638078,1480.0796037999999,452.8847838995925,5.426832808612629,2457.7300037877494
CsYCdSe3,mp-11116,1142.2046037999999,396.23847645686567,4.786701643970068,1896.675366660274
CsYHgSe3,mp-11123,1318.5626038,395.6168674457141,5.534457439856658,2189.524715367718
CsYZnSe3,mp-574620,1048.2006038,374.11518622181717,4.652519107341447,1740.578052243608
CsZn2B3O7,mp-1195000,2448.9135114,1187.5074098753653,3.424413626885145,4066.516556404284
Cu2GeS3,mp-15252,591.854,218.79390568055214,4.491883289283199,982.7966887234766
Cu2O,mp-361,286.1828,76.5869082712687,6.20494716806907,475.2177195889744
Cu2Se,mp-1097707,9890.496,2456.9320434532096,6.684578452144643,16423.55499605103
Cu2SnSe3,mp-1200177,3861.456,1156.6648241738822,5.543609875520027,6412.098541956969
Cu2WSe4,mp-1025340,626.7719999999999,173.33187043550686,6.004547168596251,1040.779391851015
Cu3Hg2(Te3O8)2,mp-1194777,3226.8167999999996,905.005457405235,5.920688448138194,5358.255357161198
CuBS2,mp-12954,276.974,112.25620366222348,4.097111183417321,459.92614743246827
CuBi(PSe3)2,mp-683998,3232.935696,1094.8733660698022,4.903230080647888,5368.41602301366
CuBiPbS3,mp-624191,2303.6856,546.0729465857206,7.005217819124041,3825.3599359638606
CuBiSeO,mp-23116,734.9716,141.45518875529484,8.627813976854387,1220.4490546415084
CuBr,mp-22913,143.45,45.25114146849795,5.264051278564948,238.20432910376996
CuCl,mp-1225654,98.999,39.06982210929388,4.207638995500521,164.39170705433335
CuHg(SeO3)2,mp-1194904,2072.2096,614.6164574116133,5.598589093228765,3440.98499498356
CuI,mp-570081,380.90094,110.40773980176633,5.728773114188356,632.5008913746626
CuN3,mp-27954,422.2644,251.79903663571773,2.784706971094685,701.1865326344091
CuP2,mp-927,501.97409600000003,190.93693187864682,4.365565051390864,833.5475968292187
CuPS3,mp-1105187,762.859048,420.37823665904114,3.013374958658294,1266.7572515132845
CuSbPbS3,mp-649774,1954.8039999999999,576.0745317553351,5.634736879714322,3246.028409545946
CuSbS2,mp-4468,997.744,334.6434953908593,4.95091915212826,1656.7928904657504
CuSbSe2,mp-20331,1372.904,383.64935720103887,5.942303001166693,2279.760726691406
Dy(CuSe)3,mp-1225403,1180.036,278.07002138498393,7.046771414749179,1959.4958779943977
Dy(CuTe)3,mp-1225395,1471.876,337.14082911901863,7.2495153007057285,2444.107599190941
Dy2(MoO4)3,mp-1213120,1609.6255999999998,568.862277441483,4.698582235793287,2672.8461913994643
Dy2O3,mp-2345,2983.9856,594.5583725490907,8.333958265069626,4955.02466297184
Dy2S3,mp-1270,1684.78,428.8936415691947,6.5229295505305265,2797.643008626348
Dy2Te3,mp-1188427,2831.2,703.1352165530799,6.6862220731949575,4701.318205357919
Dy3GaS6,mp-1189242,1499.2259999999999,454.74506826747484,5.474547205420483,2489.523342662451
Dy4GaSbS9,mp-1196712,4520.272,1322.594630234067,5.6752750057133685,7506.088247658115
Dy4Te3S4,mp-1095296,1161.06,304.694857020746,6.327594458003351,1927.9854886665958
DyN,mp-1410,176.5067,29.215228398931178,10.032311466624336,293.0962708666462
DyPO4,mp-5767,514.942724,142.34941867344673,6.0069266051939625,855.0825102634215
Er(CuTe)3,mp-2717767,2962.7879999999996,666.0707169787497,7.3863406611983535,4919.82522005368
Er2O3,mp-679,3060.1295999999998,571.3227771258436,8.894209986204963,5081.4647496590305
Er2Se3,mp-209,2285.5919999999996,559.6653396140929,6.781400486450379,3795.3148063084263
Er2Te3,mp-14643,2869.272,685.6202869916305,6.94923755772658,4764.538248701515
ErBiW2O9,mp-1983109,1775.828,368.2533891322111,8.007616105071197,2948.831769562144
ErN,mp-19830,181.26569999999998,27.95322407670807,10.767944887452241,300.9987762845956
Eu(BiSe2)2,mp-1193071,3543.0591999999997,821.6091478157904,7.1608114789340584,5883.388216876541
Eu(DySe2)2,mp-645690,3171.216,763.6795464719025,6.895468237894899,5265.928056626985
Eu(ErSe2)2,mp-1193984,3209.2879999999996,750.4348686916603,7.1014132235907965,5329.14809997058
Eu(GaS2)2,mp-1181942,3357.3599999999997,1294.8930490504672,4.305396067056109,5575.027440640175
Eu(GaSe2)2,mp-1201775,4858.0,1520.9590810238294,5.30382367690825,8066.8987855427995
Eu(HoSe2)2,mp-1193885,3190.65856,765.3697453227081,6.922423076480214,5298.2131870616995
Eu(InSe2)2,mp-1104657,1394.88,407.80079471159723,5.679863215708287,2316.2527332190075
Eu(LuSe2)2,mp-645692,3270.952,730.9041712302537,7.431266361267387,5431.543580973403
Eu(SbS2)2,mp-1194437,2094.976,658.2244893344063,5.285111003856964,3478.7894915894017
Eu(TmSe2)2,mp-542964,3222.68968,737.8240607145883,7.252951480039534,5351.402113168652
EuAl2O4,mp-1019732,1079.6987087999998,380.8417501999522,4.707682088895626,1792.881886119977
EuIn2(GeIr)4,mp-1095411,1441.0280000000002,217.12058435164744,11.020987702340387,2392.883290064465
Fe2B(PO4)3,mp-1197728,814.830172,429.7354474430287,3.1485820899840387,1353.0573332503973
FeAsS,mp-561511,651.3263999999999,170.39560714503736,6.347305252930267,1081.552932307938
FeAsSe,mp-1101894,838.9063999999998,188.05874552278055,7.4074558274239894,1393.0368504207659
FeBi(SeO3)3,mp-1197024,2582.8,889.9663595870363,4.8191038402896424,4288.84030121448
FeBi25O39,mp-757766,5904.3316,1107.9548991323613,8.849072549468108,9804.373283960886
FeP4,mp-570553,718.960192,288.19890158792356,4.142491451453413,1193.8614861462368
FePS,mp-1101971,475.53504799999996,155.60722013775205,5.074600806071013,789.6445247415061
FeSi2,mp-1714,896.1279999999999,292.7460250559445,5.0830939630683405,1488.0555526741246
Ga2(TeO3)3,mp-1181313,1332.4812,542.1458308273376,4.081258145494671,2212.6370881100474
Ga2HgS4,mp-4809,468.296,160.37532561024014,4.848774584080167,777.6238027325135
Ga2HgSe4,mp-4730,655.876,183.04843408134425,5.949833585363296,1089.1077208453414
Ga2O3,mp-886,374.8884,105.73376293730534,5.887587999533202,622.5168338151674
Ga2PbS4,mp-1196984,3799.2479999999996,1349.925713949747,4.673442147600109,6308.799727701916
Ga2PbSe4,mp-571171,5299.887999999999,1493.0427995692946,5.8944533104766395,8800.671072604538
Ga2S3,mp-539,471.282,219.106108358102,3.5717040398816575,782.5821723853811
Ga2Se2O7,mp-1196063,3274.8944,1117.8369375832713,4.864833060487828,5438.090090189567
Ga2Se3,mp-1340,752.652,251.7131984069082,4.965206661647674,1249.8080495546233
Ga2SnGeS6,mp-1194838,2092.7439999999997,1001.2131333086817,3.4708725373075526,3475.083168392749
Ga2Te3,mp-38970,1044.492,320.9027447491866,5.404814384204681,1734.4197707511669
GaAgGeS4,mp-1224946,1135.4736,496.7760620336651,3.795469258672063,1885.4982718929416
GaAgO2,mp-11020,419.18,96.21024924019014,7.234829671833125,696.064765937388