Formula,Material ID,formula_unit_mass,volume,density,estimate_formula_unit_mass
UHg3(TeCl3)2,mp-567543,2615.43382,797.497096667644,5.445825511295654,4343.030034216872
UHg4(AsCl3)2,mp-570252,11223.600880000002,3462.3818979181847,5.382776446576297,18637.22772916614
V2O5,mp-25279,363.76,175.71849611799263,3.4375305059565995,604.0376908664159
V2Pb4(Se2O7)3,mp-1203641,3480.8608,1065.1558660518672,5.426534771123412,5780.105343796529
V2Zn3TeO10,mp-554700,2342.8160000000003,919.2470212035054,4.232091488055301,3890.3374938555457
V3As2O9,mp-1216491,446.66229999999996,170.6755723088174,4.345672838204343,741.7001987274091
V3Bi(PbO4)3,mp-1216962,2350.7954,664.3873079873123,5.875469853734954,3903.587599283573
VAg(IO4)2,mp-1198619,8649.82144,2843.5631629478894,5.05118599347163,14363.366420234264
VCu3S4,mp-3762,369.8395,154.84416641947865,3.9661354529695454,614.1329381218106
VFeSb,mp-567636,228.54649999999998,47.62263842384987,7.969117301040473,379.5103917846968
VGa(TeO4)2,mp-1195697,2015.4388000000001,677.9931761934863,4.936207297145916,3346.714863741424
VO,mp-19184,133.8818,41.804172700848774,5.318032742750917,222.31595920672783
VO2,mp-541404,331.7612,135.43671915122044,4.067600255193656,550.9024333820959
VZn2BiO6,mp-1105584,973.4726,271.6664645531357,5.950271724644552,1616.489282564675
WO3,mp-2383161,1854.7056,458.80328245471986,6.712705038560279,3079.811105841793
WSe2,mp-1821,683.52,131.12545319316163,8.65592175403535,1135.0116628024318
Y(CuSe)3,mp-1216202,1032.8477,284.17299908456647,6.035351568315497,1715.0839556979565
Y(CuTe)3,mp-1216225,1324.6877,336.1308930059073,6.544163963101845,2199.6956768945006
Y2O3,mp-2652,1806.4792,596.8276909170065,5.026122832858722,2999.7292846003147
Y2S3,mp-541289,1644.0402,717.4624790592753,3.8050672458027317,2729.992979160877
Y3GaS6,mp-1189598,1057.6611,457.90588379842717,3.835477197201199,1756.2875757731294
Y6Zn(SiS7)2,mp-1216132,1103.9251,481.7282394829768,3.8052798339531217,1833.1107551503117
YCuO2,mp-2918,368.9013,122.48560880109859,5.001199948022238,612.5750203695264
YMoClO4,mp-560118,568.5929,251.75943451358552,3.7502893397642953,944.1707234413869
YMoO4F,mp-555913,1071.3674128,408.3468656114635,4.356706499932605,1779.047443636569
YN,mp-2114,102.91255,29.3532772394838,5.821847704574437,170.8903097184258
YNiSb,mp-11520,269.35925,63.47281123191167,7.046821290786001,447.28155757507596
YSbPd,mp-1207056,317.08585,71.12020036640537,7.40343023048882,526.5334413910676
YSbPt,mp-4964,405.74985000000004,71.3535151805803,9.442610857880519,673.76347719209
Zn(GaSe2)2,mp-15776,520.6949999999999,169.39174072865404,5.104347978029998,864.634389283287
Zn(InS2)2,mp-674328,846.61,327.5503422251356,4.291947825864141,1405.828979174226
Zn(InSe2)2,mp-22607,610.885,191.800785952383,5.288812570099574,1014.3984076999409
Zn(InTe2)2,mp-20832,805.4449999999999,240.88146830313525,5.552410892873276,1337.4728884976369
Zn2InCuSe4,mp-1215816,625.0219999999999,195.32628842886953,5.313536937770767,1037.873448484465
Zn2InCuTe4,mp-1215701,819.582,242.52803889040558,5.611507582829014,1360.9479292821609
Zn2MoSeO7,mp-1191333,835.4276,320.449524962429,4.3291066425469875,1387.260167115878
Zn2TeMoO7,mp-1192126,932.7076,326.5852634658844,4.742398328320518,1548.797407514726
Zn3(BO3)2,mp-557683,1255.3816000000002,523.6015580342996,3.9812910376295285,2084.6101902908144
Zn3(PS4)2,mp-30311,1029.389048,575.1076920690618,2.9722098182768106,1709.3407289341822
Zn3As2,mp-680580,11074.2464,3390.625722112223,5.42354724097907,18389.21878035441
Zn3P2,mp-2071,2065.396192,731.0822298364071,4.691224769052758,3429.6710648228745
Zn6S5Cl2,mp-1215990,1247.37,650.5483679818526,3.1839394539263863,2071.306615504842
ZnAs,mp-7372,1122.6448,311.5660976784548,5.983306791739732,1864.1955483153436
ZnAs2,mp-7262,1722.0176000000001,558.3442182356343,5.121352392989239,2859.477498172772
ZnB12(H5O12)2,mp-1195627,1178.412,873.0145641316886,2.241427855784395,1956.7991625502393
ZnCu2GeS4,mp-6408,393.401,147.001823583286,4.443875003832139,653.2577293395066
ZnCu2SiS4,mp-1189702,697.693,285.3026892857826,4.060762574280743,1158.5464829933537
ZnCu2SiSe4,mp-1232332,536.4265,175.4085450311627,5.078185669069057,890.7571596095048
ZnCu2SiTe4,mp-1078498,730.9865,212.43916843784982,5.713784559283442,1213.8316404072007
ZnGeN2,mp-2979,664.2496,182.23538225731187,6.0526797656450535,1103.0124107734232
ZnGeP2,mp-4524,399.99304800000004,158.9073890850488,4.179818738428334,664.2040825724091
ZnHg3(SCl2)2,mp-1105779,1746.242,581.1159843129469,4.989886939981584,2899.703060737717
ZnI2,mp-27161,5107.48704,1937.1075313513943,4.378271017384577,8481.181762073196
ZnO,mp-2133,162.8168,47.397148259900405,5.70421780686615,270.36365709879885
ZnS,mp-554820,2729.272,1094.3999128517012,4.141139565305906,4532.062779377515
ZnSb,mp-753,1497.352,391.75922728067167,6.346784757848934,2486.4114924516434
ZnSe,mp-1190,144.369,45.44784771695639,5.274845268778988,239.73036450597536
ZnSi(AgS2)2,mp-1189914,874.9818,332.8974915414343,4.364531119583839,1452.941461463988
ZnSiAs2,mp-3595,486.67539999999997,171.94529125925024,4.700003754302898,808.1435144531814
ZnSiP2,mp-4763,310.884048,151.00927439980956,3.418565574455873,516.2351068867496
ZnSnO3,mp-13334,464.2344,117.57007878380284,6.556764826849906,770.8793572596109
ZnSnP2,mp-4175,492.13304800000003,180.59078792277623,4.525181829974542,817.206152168933
ZnTe,mp-2176,579.027,171.17748428055455,5.616959252306423,961.4969541161983
ZrHg4(PCl3)2,mp-1200713,9345.996192,2997.634489201996,5.177212848669309,15519.391793110835
ZrO2,mp-2858,492.8912,141.66836532722778,5.777331384412114,818.4650931833539
ZrS2,mp-1186,155.35399999999998,71.28910063255313,3.6186651797200184,257.9713861525764
ZrS3,mp-9921,374.83799999999997,172.4735477620155,3.608861478892194,622.4331426462107
ZrSe2,mp-2076,249.144,80.50391312521093,5.139046403440359,413.71334520899035
ZrSe3,mp-1683,656.208,199.4116018231838,5.464371229421456,1089.6590198154527