Formula,Material ID,formula_unit_mass,volume,density,estimate_density
Rb2TeI6,mp-28070,2119.92484,806.8840467017882,4.362730964213464,4.362733416533416
Rb2Ti(AgS2)2,mp-1209316,1125.598,492.75126451057815,3.7931905748497603,3.793192707027289
Rb2Ti(CuS2)2,mp-7129,948.3091999999999,414.37634118325275,3.800179492196923,3.8001816283029686
Rb2VAgS4,mp-8901,916.0106,476.9606297629563,3.189092121661404,3.189093914271194
Rb2VCuS4,mp-15219,827.3661999999999,429.2400461153299,3.200712305196358,3.2007141043379304
Rb3Bi2Br9,mp-1195363,5574.0008,2147.5838539848037,4.30988809516592,4.309890517782545
Rb3Bi2I9,mp-29895,7266.01772,2746.4582749639526,4.393114722569822,4.3931171919686856
Rb3Cd(BO2)5,mp-1200569,2331.4536,1194.4883451595015,3.2411113933876408,3.241113215237808
Rb3Na(MoO4)2,mp-1104938,599.26836928,274.42918123451176,3.6261032230269685,3.6261052612835907
Rb3Nb2AsSe11,mp-683902,2771.39552,1085.4299446944678,4.239804284426313,4.239806667648365
Rb3Sb,mp-16319,756.3267999999999,396.5647708918155,3.166973696862201,3.1669754770390774
Rb3Sb2Br9,mp-1194576,4876.2376,2050.9431102852063,3.9480290760955437,3.948031295308818
Rb3Sb2I9,mp-1209693,6568.25452,2676.7916230801434,4.074595547815445,4.074597838172572
Rb3Ta2AsS11,mp-1209358,2091.87152,950.4351455140522,3.6547831776456174,3.6547852320234324
Rb3Zn(BO2)5,mp-1020643,2143.4456,1161.1878303948022,3.0652019102901966,3.0652036332604786
Rb4Ge(PSe3)4,mp-1195251,5943.704992,2731.1372765741,3.613789180140341,3.613791211475158
Rb4Ge3B6O17,mp-1020896,1793.2939999999999,855.9499325679352,3.478982393240664,3.478984348799694
Rb4Mo5(PO11)2,mp-1199088,2471.0110480000003,1130.9420203670604,3.6281350461029493,3.628137085501674
Rb4Ti3S14,mp-542067,1868.7644,1084.1742392830158,2.862230239415652,2.8622318482942144
Rb5Li6(BO2)11,mp-1020620,939.8928,565.423934219926,2.760280593656304,2.7602821452282957
Rb7Th2(P2Se7)3,mp-585963,5812.706584,2393.60201377705,4.032510964587649,4.032513231288753
RbAg2SbS4,mp-17756,1653.6725999999999,644.9712341395654,4.257535546262503,4.257537939451413
RbAg5(PS4)2,mp-1195102,7546.210592,2944.416229244205,4.255776533341282,4.255778925541439
RbBi3Se5,mp-1209327,4428.835999999999,1151.8974255548164,6.384470556501388,6.384474145254546
RbBiS2,mp-30041,358.5782,115.35776208989007,5.161621539321554,5.161624440703186
RbBr,mp-22867,165.3718,82.55292826433187,3.326427543971318,3.3264294137782575
RbCd(BO2)3,mp-1197285,1305.2328,636.6976593217289,3.4041118632611513,3.404113776734961
RbCl,mp-23295,120.9208,72.44443938610804,2.7716925421197955,2.771694100106519
RbF,mp-11718,104.4662032,44.66769821355681,3.8835717641775656,3.8835739471589585
RbGaSnSe4,mp-1209628,4717.9264,1892.6659992364148,4.139294045385822,4.139296372110402
RbGeB3O7,mp-1199892,1210.1464,620.5281988679719,3.238362699988925,3.238364520294033
RbH2(IO3)3,mp-1192404,1224.38338,475.98343966440365,4.271443637659398,4.271446038666139
RbH3(SeO3)2,mp-24022,1369.6320799999999,718.8430975555559,3.163872037503767,3.163873815937181
RbHgSbTe3,mp-1219595,1581.2356,445.47819345660906,5.894123496652014,5.894126809777843
RbI,mp-22903,212.37227000000001,100.58221792977244,3.506111301341046,3.506113272149415
RbInS2,mp-601861,2115.3264,966.4425750723994,3.6345482043226403,3.634550247326242
RbInTe3O8,mp-1192556,1422.1619999999998,477.80202529853045,4.942539870061224,4.9425426482956
RbMoPO6,mp-1198591,1233.511848,574.7277312273445,3.563939064404949,3.563941067718686
RbNa2Sb,mp-975275,253.20733855999998,121.74122225192204,3.4537247930583703,3.4537267344199365
RbNb3(TeO6)2,mp-1201687,3245.51896,1118.5526048576505,4.8181113709505485,4.81811407924284
RbNb4Br11,mp-1201070,2672.07464,896.3232817966103,4.950316943343634,4.950319725949552
RbPSe6,mp-17945,2360.806248,979.0433013472184,4.004124228298113,4.004126479042844
RbSbS2,mp-10621,1085.4312,489.07996330808464,3.6852888012734573,3.685290872798685
RbSbSe2,mp-1189259,1460.5911999999998,542.575632156056,4.470102607251972,4.470105119926235
RbTa3(TeO6)2,mp-1204836,4302.01696,1078.453354295638,6.6239927752104375,6.623996498600619
RbTbSe2,mp-10782,402.31314999999995,123.58321647862664,5.405723540926321,5.405726579519303
RbV(CuS2)2,mp-15998,783.5226,377.0057409669853,3.451061205399365,3.451063145263711
RbY(TeO3)2,mp-1194706,2102.2802,758.4457390792378,4.602726630487341,4.602729217710444
ReS2,mp-572758,2002.696,467.5299135649283,7.113031380529443,7.113035378811463
ReSe2,mp-541582,1376.5079999999998,265.05201794220613,8.62376120443585,8.623766051909103
Rh2S3,mp-974381,604.012,163.22288044051223,6.1448831192557245,6.1448865733351985
RuS2,mp-2030,660.8,178.51153198083136,6.146853388312788,6.146856843499762
RuSe2,mp-1922,1035.96,212.95075599608094,8.078168322945961,8.078172863737844
Sb2O3,mp-2136,1166.0728,331.9848734985325,5.832523086050206,5.832526364550037
Sb2Os,mp-2695,867.5,130.07604254222485,11.074427020701247,11.074433245709976
Sb2S3,mp-2809,1358.8600000000001,515.7079119701428,4.375422722175947,4.375425181630019
Sb2Se3,mp-2160,1921.6,579.4444338187419,5.506812533083567,5.506815628499341
Sb2Te3,mp-1201,626.3199999999999,169.92445719025892,6.120536415946441,6.120539856340471
Sb3IO4,mp-1209215,4449.4565600000005,1384.300278465236,5.33735097648844,5.337353976648751
Sb5IO7,mp-556869,3390.8010800000006,1077.5084613301387,5.225534520126911,5.225537457434451
Sb8I2O11,mp-1219562,1403.88234,435.9036007018905,5.3479747970104645,5.347977803142496
SbI3,mp-23281,1004.94682,351.97797437316626,4.741073521538678,4.7410761865274855
SbOsS,mp-1102833,1376.22,227.567548364984,10.042148323235562,10.042153967993602
SbOsSe,mp-1101771,1563.8,246.30750611538141,10.542719681196585,10.542725607329098
SbPb2S2I3,mp-578882,3924.01364,1096.7478719307567,5.941181299600147,5.941184639177479
SbPbBrO2,mp-1206466,881.7256,207.1984593948095,7.066364340245682,7.066368312295849
SbPbIO2,mp-1219447,487.86327,109.40494638709656,7.4047476439307545,7.404751806188416
SbRuSe,mp-1102395,1207.1599999999999,244.07644139394293,8.212739944046893,8.212744560482374
SbSBr,mp-22971,934.9159999999999,338.10093212572406,4.591719201212127,4.591721782247882
SbSI,mp-23041,1122.91788,381.2837437757244,4.890449799560453,4.890452548514655
SbSeBr,mp-1209072,1122.496,367.6208373305021,5.070301437854808,5.070304287904806
SbSeI,mp-22996,1310.49788,403.92772149890897,5.387431489874499,5.3874345181853975
SbTeI,mp-28051,752.52894,226.99467602106913,5.5049912426188445,5.504994337010858
SbTeOs,mp-1103213,1758.3600000000001,269.76474462118375,10.823599196577488,10.823605280594238
SbTeRh,mp-1219458,1409.0620000000001,267.9220745965157,8.73314564238582,8.733150551344787
SbTeRu,mp-1102857,1401.72,267.42505422475244,8.70378741132592,8.703792303782432
Sc(CuSe)3,mp-1219527,944.947824,257.0687782050894,6.103902576604674,6.103906007648713
Sc2O3,mp-216,1103.280192,479.72910891946253,3.818904932303188,3.818907078934927
Sc2S3,mp-401,744.427296,428.6277174366303,2.883972633977312,2.8839742550774186
ScAg(PSe3)2,mp-13383,1377.0632719999999,561.0232200306174,4.075887198057913,4.075889489141085
ScAgO2,mp-11022,369.645824,110.83397731096576,5.53811517415263,5.538118287163826
ScCuO2,mp-3642,281.001424,102.27311664510334,4.5624290881974545,4.5624316527690425
ScNiSb,mp-3432,225.409312,56.26662650851607,6.6522731462277545,6.652276885514519
ScSbPd,mp-569779,273.135912,64.0124422932965,7.085385842478886,7.0853898252211645
ScTlS2,mp-13312,626.9384239999999,186.21082110984122,5.59073709680138,5.590740239391707
ScTlSe2,mp-13313,407.25921199999993,104.88475063809506,6.4477421898270135,6.447745814145576
ScTlTe2,mp-13314,504.53921199999996,127.70384451989109,6.5605469851542555,6.560550672881139
Si(Bi3O5)4,mp-23492,2855.8383,516.0762152775502,9.18901302686875,9.189018192073794
Si3N4,mp-988,280.5666,145.49663109055865,3.2020796398588742,3.202081439769034
Si3Ru2,mp-22192,2291.172,550.2679727401842,6.914050613111794,6.914054499545408
SiAs,mp-1863,618.0426,288.35662420758007,3.5590785713465807,3.5590805719282033
SiAs2,mp-978553,1423.4296,592.9633567752937,3.9861830117278756,3.9861852523877306
SiB3,mp-569128,484.148,325.62657183715186,2.4689221874015743,2.468923575199077
SiGe,mp-1219182,100.7255,42.57521558313115,3.9285444703441104,3.9285466786049605
SiP,mp-2798,708.7111440000001,520.8539229316051,2.259448359192474,2.2594496292433512
SiP2,mp-9996,720.264192,525.5840606792137,2.2756147276297805,2.275616006767881
SiSe2,mp-1250007,1488.0439999999999,691.0016622931032,3.5759034017657996,3.5759054118047704
SiSn,mp-1009813,146.7955,55.89218660970132,4.361247561367914,4.361250012854034
Sm(CuTe)3,mp-1219189,1447.596,347.83040000462785,6.910809723997417,6.910813608609305
Sm(ErSe2)3,mp-13282,2251.794,521.1984783330308,7.174218771502713,7.174222804178569
Sm2Mn3(SbS3)4,mp-1192255,1337.354135,462.3600958032572,4.803028650620211,4.803031350434407
Sm2O3,mp-218,2789.7456,654.3533566824561,7.079480081162786,7.0794840605854
Sm2S3,mp-1403,1587.66,458.84211819880477,5.745705003776228,5.74570823347504
Sm2Se3,mp-15081,2150.4,519.8506654821398,6.868940343675141,6.868944204751972
Sm2Te3,mp-1106376,2734.08,641.5556993944723,7.076621181130209,7.076625158945813
Sm2ZrSe5,mp-1198078,3146.9759999999997,772.917204931014,6.760978480378132,6.760982280768886
Sm3B(SO)3,mp-1105337,1212.1684,353.297331773885,5.697334235137298,5.697337437646582
Sm4GaSbS9,mp-1199065,4326.032,1385.806729271771,5.183655835714276,5.183658749481532
Sm4InSbS9,mp-1196183,9012.824,2855.0759209907505,5.24194339014166,5.241946336672735
SmBiW2O9,mp-1200917,3484.0600000000004,763.0296493535305,7.582166361792146,7.582170623778043
SmCuSe2,mp-11793,1487.304,350.37939394943106,7.048720440069294,7.0487244022017075
SmCuSeO,mp-9194,617.7307999999999,138.50090046854655,7.4062054656101095,7.406209628687222
Sn2SbS2I3,mp-1219046,1608.04682,564.3843504904992,4.73121652507062,4.731219184518744
Sn2WO5,mp-557633,4010.056,1082.4215080080846,6.151812947164751,6.1518164051395265
Sn3Ir2Se3,mp-1194504,3909.7760000000003,735.6796516509253,8.824949521283822,8.824954481846358
Sn3WO6,mp-556980,2543.8656,711.6421731715209,5.935831753975785,5.935835090546103
SnBr2,mp-29862,1114.072,397.626590899177,4.652505947406003,4.65250856261039
SnCl2,mp-29179,1516.9279999999999,665.715260636132,3.783777170456364,3.7837792973425555
SnGe,mp-995181,191.35,207.54824464034792,1.530941159943396,1.5309420204955548
SnGeS3,mp-5045,1150.1799999999998,531.9924307893193,3.5901240564423698,3.590126074474864
SnI2,mp-27194,1117.55682,362.5936855637524,5.117978698029424,5.117981574879126
SnI4,mp-23182,5010.62304,2007.9440686885678,4.1437086996951304,4.143711028901217
SnO2,mp-856,301.4176,72.82143907393863,6.873191556302777,6.873195419769243
SnPbS3,mp-1188095,1688.4199999999998,504.4134958079262,5.558311572013088,5.558314696376812
SnS,mp-2231,603.0999999999999,204.3235483638381,4.90139839037615,4.901401145484627
SnS2,mp-1170,182.83999999999997,72.82621589710445,4.169006438095262,4.1690087815213746
SnSe,mp-691,790.68,226.25694595101302,5.8029379989225,5.802941260792358
SnSe2,mp-665,276.63,82.9070527059618,5.5406012757769405,5.54060439018559
SnTe,mp-1883,246.31,64.66821344829322,6.324705070463654,6.324708625622237
Sr(LaS2)2,mp-34141,987.38188,341.9675241804545,4.794566938256253,4.7945696333140635
Sr(NdS2)2,mp-37108,1008.728,328.5624501000629,5.098063552494077,5.098066418149343
Sr(PrS2)2,mp-38240,995.3906,334.11004134277186,4.947127512790547,4.947130293603665
Sr2Be2B2O7,mp-556498,653.764328,302.13819607381964,3.593061787951688,3.5930638076355006
Sr2ScSbO6,mp-1106218,875.904624,269.84851686904693,5.389964205263415,5.38996723499797
Sr2SmTaO6,mp-1208761,1205.0885600000001,297.93977721304066,6.716446697084901,6.716450472444044
Sr2TiO4,mp-5532,287.1046,95.59542788402864,4.9871465095478476,4.987149312855909
Sr2V3Se5O18,mp-1197632,4043.4147999999996,1718.7548126158176,3.90646076367928,3.9064629595267317
Sr3Ti2O7,mp-3349,470.58979999999997,155.59136359944824,5.022340116866562,5.022342939957183
Sr4Te3(ClO2)4,mp-1218587,2006.1743999999999,780.782141741351,4.266658761153353,4.266661159470483
Sr4V2(Se2O7)3,mp-1204879,2524.2208,1042.987443245584,4.018808930317438,4.018811189316537
Sr5V3O12F,mp-40674,1603.8314064,669.6138882246894,3.9772542854929176,3.9772565211338757
SrBiClO2,mp-547244,728.1044,209.2603088660921,5.777712014833325,5.7777152625234915
SrCrO4,mp-510607,814.4548000000001,344.433546328756,3.926545563854614,3.9265477709918652
SrO,mp-2472,103.6194,34.49840025661019,4.987595380591106,4.987598184151482
SrPbO3,mp-20489,1371.2728,296.90377048683945,7.669326838228552,7.66933114920793
SrS,mp-1087,119.685,55.30731406084619,3.593405710633063,3.5934077305101972
SrSe,mp-2758,166.57999999999998,61.901185586472266,4.46861550539798,4.4686180172363335
SrSeO4,mp-4092,922.3104,350.3325692370048,4.371653066875919,4.371655524211044
SrSnO3,mp-2879,1017.3127999999999,266.2174999396318,6.345516909051056,6.34552047590811
SrTaNO2,mp-2583419,1258.2935200000002,267.83674631005147,7.80119074770591,7.801195132806865
SrTe,mp-1958,215.22,75.58435544653058,4.728243242961414,4.728245900738236
SrTh(PS4)2,mp-1194714,2552.5023359999996,1234.1375005021987,3.434406494244769,3.4344084247473914
SrTiO3,mp-4651,366.9704,119.62507795144641,5.093987781835845,5.093990645200093
SrZrS3,mp-558760,1100.156,461.5351916601778,3.9582074137901837,3.9582096387247696
Ta2Mn3O8,mp-31909,2618.8203799999997,647.7800116042033,6.71316414754598,6.71316792105998
Ta2O5,mp-10390,883.78552,168.1248937093548,8.7289892060389,8.728994112661509
Ta2Tl4S11,mp-18344,3064.2879199999998,911.4296404208437,5.58284433247195,5.582847470625701
Ta4Cu2O11,mp-676563,2053.75384,429.7330666236046,7.935946170711641,7.93595063155951
Ta7Cu3O19,mp-28752,3522.5235199999997,699.3823346683047,8.363505379002003,8.363510080183733
TaCu3S4,mp-10748,499.84587999999997,165.15806593774687,5.025571147896058,5.025573972802864
TaNO,mp-4165,843.81592,128.59579154520173,10.896074306494693,10.896080431250182
TaTl3S4,mp-7562,922.35778,233.26503522396746,6.565969587348933,6.565973278123898
TaTlS3,mp-10795,1926.10472,476.0707586574709,6.718270500255314,6.7182742766396295
Tb(CuSe)3,mp-1217841,1172.8867,279.70784379116225,6.963066032212186,6.963069946197691
Tb(CuTe)3,mp-1217851,1464.7267,337.4277332196543,7.208168350699238,7.208172402458378
Tb2(MoO4)3,mp-3114,3190.654,1199.4228172622293,4.4172960016694525,4.417298484660773
Tb2EuSe4,mp-646337,3142.6188,771.5583595640611,6.763508196295207,6.763511998107931
Tb2O3,mp-1056,2926.7912,606.4592869538722,8.013812686078552,8.013817190695706
Tb4Al2O9,mp-1200490,3334.6363088000003,846.4379821886813,6.5418778223386616,6.541881499571485
Tb4GaSbS9,mp-1202576,4463.0776,1337.036248261317,5.5429422513449325,5.542945367069461
TbWClO4,mp-1103802,884.4318999999999,256.9517826837954,5.715600438174673,5.71560365095151
TcS2,mp-9481,648.52,229.4155268124772,4.694071105098641,4.6940737436670785
Te2Mo,mp-602,702.28,161.280150965677,7.23066892428707,7.230672988693931
Te2Ru,mp-267,712.54,138.68892091453327,8.53132679029429,8.531331585809546
Te3As2,mp-484,1065.2864,306.5208834463345,5.771057633752973,5.771060877702667
TeI,mp-569766,1018.01788,330.19365187694956,5.119597092881965,5.119599970641376
TeI4,mp-570884,10163.48608,3920.2003865394863,4.305102807150928,4.305105227077711
TeO2,mp-8377,638.3951999999999,187.38091447094357,5.657354018806982,5.657357198843123
TePb,mp-19717,334.79999999999995,69.98911846195519,7.94335593467838,7.9433603996913265
TePb3Cl4O3,mp-1196950,3756.0407999999998,1066.169815246742,5.84996160550661,5.849964893808749
TeSe,mp-1217322,619.68,192.49977990130773,5.345475456222573,5.345478460949709
Th2Se5,mp-2392,3435.5044799999996,690.3013880073445,8.26420097312425,8.264205618486317
ThO2,mp-643,264.03686,43.92656473586823,9.981284074654347,9.981289685200188
ThSO,mp-8136,560.20492,107.0206249745882,8.692176439657416,8.692181325587324
ThSeO,mp-7950,653.99492,115.34164726873333,9.41536851374871,9.41537380618967
ThTeO,mp-3718,751.27492,133.1453171336779,9.369622464185339,9.369627730912141
Ti(Bi3O5)4,mp-23494,2875.6198,527.4664135784507,9.052858903741887,9.052863992413796
Ti6H2O13,mp-1191976,497.21007999999995,261.54147559856006,3.1568100633284675,3.1568118377922985
TiCoSb,mp-5967,228.56019500000002,50.222441895432794,7.557042599749188,7.5570468476128525
TiFe2Si,mp-866141,187.64249999999998,45.006166962292156,6.92322236784906,6.923226259438177
TiO2,mp-390,159.7316,68.78397225482972,3.8561390579169474,3.856141225478235
TiS3,mp-9920,288.12399999999997,153.2064428549375,3.1228527280544403,3.122854483430628
TiTlPS5,mp-1542940,887.098124,433.2135538417105,3.400311642483385,3.400313553821065
Tl2BiP2S7,mp-559093,3616.5980959999997,1330.445859697199,4.51390215004013,4.513904687334406
Tl2Cu2SnS4,mp-18240,1565.6572,424.161231099308,6.129355431106988,6.129358876458245
Tl2GeTe3,mp-29034,6913.6528,1652.3873848386577,6.947759752129458,6.9477636575112
Tl2Hg3S4,mp-1188364,2277.5932,483.2525464171811,7.826202912871073,7.826207312031531
Tl2Hg3Se4,mp-1105692,2652.7531999999997,526.6675305628945,8.363910943855155,8.363915645264855
Tl2Hg3Te4,mp-1190100,3041.8732,635.1333438480585,7.95289577089489,7.952900241270242
Tl2PAuS4,mp-9510,1529.9338619999999,432.72364349107414,5.870987142438443,5.870990442559175
Tl2S,mp-667,3967.4844,824.4993888337151,7.990500577138402,7.990505068651664
Tl2Te3,mp-29711,1583.1331999999998,347.80630992550755,7.5583865249440505,7.558390773563144
Tl2TeBr6,mp-31076,2031.5811999999999,605.7946517317157,5.5687516222314155,5.568754752463562
Tl2TeI6,mp-31077,2595.58684,763.3689813396013,5.64612062309539,5.646123796817164
Tl2TeS3,mp-17172,2530.2464,736.927793649623,5.701471747341469,5.701474952176476
Tl3AsSe3,mp-7684,924.9515,210.46975858047236,7.297571445985277,7.2975755479984885
Tl3VS4,mp-5513,792.3514,218.2765402821419,6.027814315155005,6.0278177034293305
Tl4CdI6,mp-570339,3382.74204,881.3611087453538,6.373296091594524,6.373299674066442
Tl4CuTeO6,mp-1191858,2209.3512,449.8218840751792,8.155925954964061,8.155930539464025
TlAsS2,mp-4988,2747.4791999999998,866.6852500673406,5.264075448285785,5.264078407257437
TlAsSe2,mp-30236,6995.598399999999,1917.4983655033866,6.058135248733245,6.058138654051167
TlBiTe2,mp-27438,668.5636999999999,142.96338774897637,7.765457715019705,7.765462080034885
TlBr,mp-568949,568.5745999999999,136.72022626995476,6.905637602678175,6.905641484382779
TlCl,mp-571079,479.6726,123.12706747101339,6.469049477403585,6.469053113699114
TlCr5S8,mp-541823,720.8838,263.2528545888434,4.547170872082889,4.547173428077734
TlCuCl3,mp-1105457,1497.1532000000002,500.54527904298516,4.966746229309072,4.96674902115
TlGaS2,mp-4016,2705.8903999999998,806.6708676334586,5.570099156202046,5.5701022871916495
TlGaSe2,mp-17254,3456.2104,917.3473395950205,6.256269728893391,6.2562732455840155
TlGaTe2,mp-3785,1058.6126,254.15198984408437,6.916599707810294,6.9166035956767695
TlHg6S4Br5,mp-1204377,3871.4066,960.9233474466007,6.690046525641654,6.690050286161086
TlHg6Se4Br5,mp-1202157,4246.5666,1012.5881325670845,6.963926903174094,6.963930817643498
TlInHgS3,mp-1190524,2463.9452,605.8841304649136,6.7529038257233,6.752907621575237
TlInS2,mp-20042,766.6626,193.6094997578039,6.575468661370863,6.575472357485318
TlInSe2,mp-22232,954.2426,231.1600042795146,6.854806571114,6.8548104242461445
TlInTe2,mp-22791,1148.8026,273.3288196218309,6.9792552419133544,6.97925916499892
TlN3,mp-870,492.80679999999995,140.53352166702985,5.822987526243125,5.822990799382954
TlS,mp-561066,7566.3456,1932.5754526955386,6.50127913126112,6.501282785673149
TlSe,mp-1836,1133.3732,235.33777973502288,7.997060555923034,7.997065051123705
Tm(CuTe)3,mp-2514049,2969.48884,662.5553696822655,7.442324750937269,7.442328934317271
Tm2O3,mp-1767,3086.93296,560.1576721567083,9.150946297529503,9.150951441336986
UHg3(TeCl3)2,mp-567543,2615.43382,797.497096667644,5.445825511295654,5.44582857243022
UHg4(AsCl3)2,mp-570252,11223.600880000002,3462.3818979181847,5.382776446576297,5.382779472270566
V2O5,mp-25279,363.76,175.71849611799263,3.4375305059565995,3.437532438215249
V2Pb4(Se2O7)3,mp-1203641,3480.8608,1065.1558660518672,5.426534771123412,5.426537821414525
V2Zn3TeO10,mp-554700,2342.8160000000003,919.2470212035054,4.232091488055301,4.232093866941938