Formula,Material ID,formula_unit_mass,volume,density,estimate_density
LaCuSO,mp-6088,501.03174,135.84241264338414,6.124617206709288,6.124620649397158
LaCuSeO,mp-552488,594.82174,146.14257085077844,6.758638028487416,6.758641827562587
LaCuTeO,mp-546790,692.10174,164.19791995991815,6.999248087992701,6.999252022316378
LaF3,mp-905,1175.4040776,326.1652750807279,5.984096220582201,5.984099584282294
LaGaO3,mp-5837,1026.50668,244.776697806021,6.9637120671375285,6.963715981486174
LaGaS3,mp-4816,3657.8816399999996,1399.3919751039664,4.34049606706342,4.3404985068849875
LaMg2H7Pd,mp-1180682,1203.9642,454.391481212654,4.399795488138083,4.399797961292249
LaTaN2O,mp-550514,727.7322999999999,133.42307958564874,9.057113041682872,9.05711813274606
LaVI5O16,mp-1202389,4321.43888,1474.4794468918487,4.866746769031425,4.866749504661997
LaZnAsO,mp-549589,590.47094,154.89931395845508,6.329918696896234,6.32992225498543
Li2B4O7,mp-4779,676.4872,466.64867875942014,2.4072358388353647,2.407237191958563
Li2CdGeS4,mp-1189383,654.386,350.5641099724573,3.0996713203798323,3.099673062725598
Li2CdSnS4,mp-1188784,746.526,374.1396937644697,3.313296097401023,3.3132979598266896
Li2Ga2GeS6,mp-554782,836.716,489.29861987700843,2.8395739313520427,2.839575527495344
Li2In2GeS6,mp-1191476,1017.096,518.1722214385723,3.2593944109811965,3.2593962431083683
Li2In2GeSe6,mp-1191200,1579.836,599.6262885580255,4.375023988907741,4.3750264481376835
Li2In2SiS6,mp-1191903,927.987,501.7393280987524,3.0712335679088767,3.0712352942695933
Li2In2SiSe6,mp-1191817,1490.7269999999999,584.6080787208679,4.2343075835552195,4.234309963687538
Li2PtO3,mp-531826,3083.5703999999996,666.1738716940547,7.6862653000641314,7.68626962056473
Li2TeMoO6,mp-1203622,1333.6736,512.6939384353232,4.319569530413783,4.319571958472406
Li2TeWO6,mp-1196881,1685.2736,510.8354423236782,5.478207694399647,5.4782107737364525
Li2ZnSnS4,mp-555186,652.5219999999999,352.33512162435875,3.075305884410742,3.0753076130605344
Li3Bi,mp-23222,229.8034,74.88789412092665,5.095583576182748,5.095586440444004
Li3PS4,mp-985583,720.227048,644.980015636747,1.8542669866217394,1.8542680289174858
Li3ScN2,mp-542435,750.338496,497.4472018838932,2.504720864974737,2.5047222728949134
LiAlB14,mp-8204,370.55307719999996,244.48639067743554,2.5167775565522934,2.5167789712496162
LiAsS2,mp-555874,291.98519999999996,158.8211673254257,3.0528224898104876,3.0528242058222155
LiAsSe2,mp-1078724,479.5652,180.1193542287808,4.421161473687972,4.421163958852099
LiB3,mp-1222413,157.496,146.89719224397047,1.7803489422648802,1.7803499430108043
LiB3O5,mp-3660,477.48400000000004,318.68110831890215,2.4880070232559994,2.4880084217812146
LiBi3(ClO2)2,mp-754206,1537.5716,376.1190099246799,6.788270845459157,6.788274661191131
LiBiS2,mp-1222404,280.0514,85.40092773823045,5.445330661763359,5.445333722619766
LiBr,mp-976280,173.69,99.3445024061208,2.9032208475784156,2.90322247949807
LiCa3As2H,mp-1192528,1112.10456,584.1222200119627,3.1614840263843815,3.1614858034754785
LiCdBO3,mp-6126,534.4836,204.26583499690264,4.344979659816659,4.344982102158483
LiCl,mp-22905,42.394000000000005,32.856351560680025,2.1425657398214,2.142566944171784
LiF,mp-1138,25.939403199999997,17.02215120415618,2.5304317804069387,2.530433202779391
LiGa(GeSe3)2,mp-1222398,1391.408,562.1696138591242,4.109947041994989,4.109949352223424
LiGaO2,mp-5854,434.6512,171.72218722098282,4.2030404435495,4.203042806106352
LiGaS2,mp-3647,563.1759999999999,319.85357696230477,2.9237620484129625,2.923763691878962
LiGaSe2,mp-11582,938.336,374.1015745850539,4.165028140620471,4.165030481810356
LiGaTe2,mp-5048,663.728,239.65377548288564,4.598910538235989,4.598913123314043
LiH3(SeO3)2,mp-696288,527.76244,270.85746394737725,3.2355399653095818,3.2355417840280114
LiI,mp-570935,267.69094,130.39149697099566,3.4090510038684037,3.409052920118537
LiIO3,mp-23384,1454.74936,567.1687177525457,4.259170276463127,4.259172670570931
LiIn(IO3)4,mp-973966,821.36968,284.1810755323359,4.799462593368732,4.799465291178423
LiInS2,mp-1188392,743.556,365.5210189743567,3.377928278021819,3.377930176777663
LiInSe2,mp-20187,559.358,210.40947671206862,4.414420042906587,4.414422524281313
LiInTe2,mp-20782,753.918,266.1031655628087,4.704605033033507,4.704607677523136
LiMgAs,mp-12558,106.1676,58.328389330975824,3.022463836722795,3.0224655356697223
LiMgBi,mp-570213,240.2264,77.94396843335585,5.117847218284155,5.117850095059951
LiMgN,mp-37906,45.2527,30.452298785809447,2.4675928982460373,2.4675942852963377
LiMoIO6,mp-558917,651.56374,260.23128451863494,4.157636337427093,4.157638674461997
LiNbO3,mp-3731,1182.7646399999999,429.06236195769645,4.577485851594526,4.57748842462962
LiSbS2,mp-1079885,385.662,169.30242856169352,3.7826203849741353,3.78262251121009
LiSbSe2,mp-37480,573.242,183.4092510914638,5.189982129861168,5.189985047184474
LiSbTe2,mp-1222285,383.90099999999995,114.56856798665653,5.564201590448894,5.564204718123436
LiSiB6,mp-973391,399.57,281.67713989551106,2.3555393777694906,2.355540701833766
LiTaO3,mp-3666,471.77416,105.12489484369374,7.452082824503236,7.452087013368317
LiZnBO3,mp-1222376,262.3184,117.08812040451187,3.7201891155408826,3.7201912066838076
LiZnN,mp-7575,86.3567,28.78282869116706,4.982091077680031,4.982093878146402
Lu2O3,mp-1427,3183.4576,540.2615684677361,9.78462289416088,9.784628394162171
Mg2Ge,mp-408,121.25,64.57586863742208,3.1178885561064233,3.117890308692217
Mg2GeSe4,mp-1192564,1748.36,672.0344668586747,4.320046404839095,4.320048833165773
Mg2Si,mp-1367,76.6955,63.69904837788204,1.9993371522115477,1.999338276052194
Mg3As2,mp-1990,1782.0656,944.6147476461049,3.132694630713741,3.132696391622128
Mg3AsN,mp-1206514,161.84329999999997,74.42114156493827,3.6111663522785498,3.611168382139058
Mg3N2,mp-1559,807.4272,489.827010464277,2.73722024386655,2.737221782476166
Mg3P2,mp-2514,1078.900192,866.2922139668336,2.0680734386085926,2.0680746010863613
Mg3Sb2,mp-1196139,2531.48,1177.5395959499585,3.569834467371242,3.5698364739988238
Mg5B3O9F,mp-560026,1267.8040127999998,698.9004665527352,3.0122144608524106,3.0122161540380974
MgCu2GeS4,mp-2222834,352.29699999999997,157.84828631548194,3.706108854275235,3.7061109375035524
MgCu2SiS4,mp-1205334,615.4849999999999,303.15496762818077,3.371334784326635,3.371336679376231
MgF2,mp-1249,124.6036128,64.91790990921109,3.187243199654242,3.1872449912247407
MgGeN2,mp-7798,499.8336,188.12025622947417,4.412035345023502,4.412037825057772
MgO,mp-1265,40.3044,18.4427700910204,3.6289033819523207,3.6289054217829304
MgSe,mp-1018040,206.52999999999997,105.19956856773545,3.260005132094054,3.2600069645645164
MgSiN2,mp-3677,321.61560000000003,169.7046730175214,3.1469685467816175,3.1469703157134674
MgTe,mp-13033,151.905,67.5217326217723,3.7357481379341437,3.735750237822898
Mn(PbO2)2,mp-21823,4266.68516,898.1721528426774,7.888239877665714,7.888244311697558
Mn(SbSe2)2,mp-1210700,1228.59609,382.09506189337435,5.339330465061909,5.339333466334904
Mn11Si19,mp-567968,4551.7719799999995,1438.8417035150683,5.253111010460837,5.253113963269305
MnF2,mp-560902,185.8697028,78.6116961747604,3.9261829704143527,3.9261851773477874
MnI2,mp-28013,308.746985,107.54303416765337,4.767267673406124,4.767270353118836
MnO,mp-1232659,283.74978,85.9056100387418,5.4848291586156375,5.484832241674412
MnO2,mp-644514,521.62107,173.18380507009397,5.001461680242682,5.001464491597396
MnP4,mp-569522,1072.9985580000002,433.09111836081127,4.1140442471047685,4.114046559636271
MoO3,mp-715584,575.7528,216.31208088552106,4.4198179463231755,4.419820430732098
MoSe2,mp-1634,507.71999999999997,129.4527726305449,6.5127140791360825,6.5127177399757725
Na(GeP)3,mp-1104707,667.66211056,317.92221148273836,3.4872650536204644,3.4872670138352326
Na2Be4B4O11,mp-1020144,2410.12533248,1652.7588755960687,2.421470747535384,2.4214721086601187
Na2Cd(GeS3)2,mp-1190146,992.12107712,555.9985001919881,2.96305800606685,2.963059671621367
Na2CdSnS4,mp-2831941,405.36053856,222.12645205745184,3.0303325160156858,3.030334219385651
Na2EuGeSe4,mp-1221353,586.42353856,204.5170268980614,4.761360020347146,4.761362696739128
Na2Ga2GeS6,mp-1190388,900.91107712,536.3449187660344,2.789246223367379,2.789247791221143
Na2Ge2Se5,mp-17964,2344.23815424,978.3476000115535,3.978850703455322,3.978852939993638
Na2In2GeS6,mp-1190145,1081.29107712,581.9893308348178,3.0851529070957584,3.0851546412806274
Na2In2GeSe6,mp-1190429,1644.03107712,666.7171580626866,4.0946566279993,4.094658929632893
Na2In2SiS6,mp-1190138,992.18207712,551.6837863518672,2.9864156623723432,2.9864173410563537
Na2Mo2Se2O11,mp-1195277,1143.5458771200001,488.3321592417072,3.8885471035857653,3.88854928936383
Na2Nb4Se4O19,mp-1192640,1037.43365856,440.84806891357647,3.9076934674797497,3.9076956640201126
Na2S,mp-648,78.04453856,68.60267970013784,1.8890808023843084,1.8890818642491312
Na2Se,mp-1266,124.93953855999999,77.2135617348962,2.686924163065691,2.686925673403548
Na2Te,mp-2784,173.57953856,95.90002973074063,3.0055841040984324,3.0055857935571506
Na2TeS3,mp-1190141,1079.09815424,616.9087338725751,2.904618695480478,2.9046203281858713
Na2TeSe3,mp-573581,1641.83815424,671.663154742201,4.059082855596543,4.059085137233883
Na2Ti3O7,mp-3488,603.15267712,289.7451538065769,3.456687956033042,3.4566898990602226
Na2Zn(GeS3)2,mp-1190399,898.11707712,532.3858949030106,2.8012734883031762,2.801275062917546
Na2Zn(GeSe3)2,mp-1190476,1460.85707712,601.7438170156992,4.031300660981383,4.031302927002168
Na2Zn(SnS3)2,mp-1190487,1082.39707712,586.939238563255,3.0622635428687723,3.062265264187378
Na3MoO4F,mp-1194849,991.6212441600001,562.3746245436955,2.9279874008081905,2.9279890466492886
Na3Sb,mp-7956,381.45861568,232.17691812387204,2.728208035261483,2.728209568805277
Na3Zn(BO2)5,mp-560158,1393.70923136,845.2840413228051,2.7379064468466967,2.7379079858420323
Na4Mg(GeSe3)2,mp-1103730,735.30407712,323.53548336994055,3.773932717271349,3.7739348386239087
Na4Mg(SiSe3)2,mp-1103351,646.19507712,305.06606980919986,3.517376320721198,3.5173782978617094
Na5Gd(MoO4)4,mp-556070,1823.8984928,736.4846603516414,4.112311992161791,4.112314303719581
NaAsS2,mp-5942,648.16547712,377.2032996439169,2.8533793246114985,2.8533809285149028
NaAsSe2,mp-984519,2046.65095424,844.2655477837196,4.025444214952513,4.02544647768135
NaBiS2,mp-1221125,296.10016928,95.23997070706925,5.162600272406609,5.162603174338392
NaBiSe2,mp-1221101,389.89016928,107.46877154353464,6.024334776269959,6.024338162588412
NaBr,mp-22916,102.89376928,51.949789918521965,3.2889280951307467,3.2889299438589985
NaCdAsS3,mp-1192203,1226.0694771199999,562.2278667782199,3.621194155299142,3.621196190796345
NaCl,mp-22862,58.44276928000001,43.625325465502776,2.224545043829438,2.2245462942609304
NaF,mp-682,41.98817248,23.889026260060266,2.918620456906104,2.9186220974819808
NaH3(SeO3)2,mp-1220990,559.85997856,299.7941266609154,3.101025949304965,3.1010276924121762
NaI,mp-23268,149.89423928,66.68896277659789,3.7323303560221612,3.7323324539897578
NaIn(IO3)4,mp-1196607,1674.83689856,577.90267981543,4.812457525080687,4.812460230194914
NaIn(TeO3)2,mp-1194878,3912.03335424,1265.018772947184,5.135168231079662,5.135171117591713
NaIn3S5,mp-1195769,2111.07507712,796.3213765298211,4.402145592724887,4.402148067200062
NaInS2,mp-20289,201.93776928,83.6359557073411,4.009346842222601,4.009349095902998
NaInSe2,mp-22473,295.72776927999996,96.18797473292786,5.105290087782719,5.105292957500069
NaInTe2,mp-22483,786.01553856,254.28877528651236,5.1327845960283245,5.132787481200518
NaLa2TaO6,mp-13019,1155.48997856,285.5542309167873,6.719340996291562,6.71934477327761
NaNb2PS10,mp-557436,2241.70516512,1407.3472797518298,2.6450038707838868,2.6450053575580696
NaNbSe2O7,mp-1190450,771.62389856,334.37346335118343,3.831977619992375,3.8319797739723582
NaSb,mp-7944,1157.99815424,477.144587518805,4.0300177859408866,4.030020051240558
NaSb(PS3)2,mp-554384,1596.34917312,955.6753529486472,2.773745454166595,2.7737470133072737
NaSbF6,mp-5955,258.74018848000003,141.361871001442,3.039349918240008,3.0393516266787137
NaSbS2,mp-5414,417.75953856,193.5071325809145,3.5849119614937073,3.5849139765964493
NaSbSe2,mp-1220879,302.66976927999997,102.88752122861273,4.884897314723899,4.884900060557012
NaSbTe2,mp-1220883,399.94976928,126.85507391371195,5.235361866714497,5.235364809546055
NaSc(SeO3)2,mp-1194561,1287.44832512,601.9811720577214,3.55137060646393,3.5513726027128545
NaSm(PS3)2,mp-561232,1710.74917312,906.6098677114744,3.1333939065656304,3.133395667867085
NaY(Te2O5)2,mp-1195227,3129.15847712,1133.0752765996365,4.585829383228455,4.585831960953504
Nb2AgPS10,mp-554930,2581.2188880000003,1358.222839242014,3.1557522662200452,3.1557540400892816
Nb2O5,mp-581967,3721.33664,1436.934978242596,4.3004206622122565,4.300423079507175
Nb2Pb2Se4O15,mp-1199265,2312.08752,763.3369616501556,5.029642012956659,5.029644840151724
Nb2Tl3CuSe12,mp-570757,7240.11464,2058.4737701064455,5.840488900551256,5.840492183528725
Nb2Tl4S11,mp-17803,2712.12192,910.3007120977321,4.947358978950995,4.947361759894224
Nb3CuO8,mp-27383,1881.04136,581.1618561232456,5.374651882707169,5.374654903834566
NbAg2(PS4)2,mp-554336,5016.882432,2315.761018189601,3.5974045704370456,3.5974065925619656
NbCu3Se4,mp-4043,599.38438,181.82844767762958,5.4738474183337145,5.473850495219578
NbCuO3,mp-17272,817.80232,279.1947379777856,4.863962376053679,4.863965110119125
Nd10Se14O,mp-1202414,10255.4376,2586.3788160257272,6.584323485160012,6.584327186251823
Nd2HfS5,mp-1196123,2509.196,681.8002000189014,6.11120088207798,6.111204317224445
Nd2O3,mp-1045,2691.8576,689.0489404160857,6.487107728262267,6.4871113747084586
Nd2S3,mp-438,1538.716,477.1530517042118,5.354881460522223,5.354884470536534
Nd2Se3,mp-32688,4202.912,1070.8416557522758,6.517396416166739,6.517400079638403
Nd2ZrS5,mp-1196300,2160.1319999999996,690.3979240062843,5.195530650205344,5.1955335706475125
Nd4(GeS4)3,mp-560086,2359.336,870.9669368160305,4.498184068338872,4.498186596797909
NdCuSO,mp-542314,511.7048,131.4642510953574,6.463398253799101,6.463401886918039
NdCuTeO,mp-974307,702.7747999999999,159.91525495925615,7.29752149486508,7.297525596850214
NdF3,mp-254,1207.4232576,306.0975333537723,6.550113185162411,6.5501168670243874
NdLuSe3,mp-13327,1112.1779999999999,259.74459154094785,7.110119240815493,7.11012323746058
NdMoO4F,mp-1192562,1292.7120128,423.68158397213637,5.066537891481002,5.066540739415485
Ni2Te3O8,mp-17360,1256.3639999999998,363.082003916808,5.745923734484667,5.745926964306429
NiO,mp-19009,74.69279999999999,18.34183362776642,6.762154477618838,6.7621582786706265
NiS2,mp-1180046,245.64679999999998,103.50869887667356,3.9407906041914456,3.940792819335928
P2Ir,mp-10155,1016.6580960000001,183.4509259235919,9.202463695856821,9.202468868622573
P2Os,mp-2319,504.355048,88.64966921430491,9.447313995231188,9.447319305628914
P2Pd,mp-28266,336.735048,100.96585044697865,5.538126998604,5.538130111621841
P2Pd3S8,mp-3006,637.7275239999999,315.60304137067794,3.355390565467712,3.3553924515549576
P2Pt,mp-730,1028.126096,187.40592135098834,9.109869824238285,9.10987494495641
P2Rh,mp-15953,659.412096,181.00969000940165,6.04928689916941,6.049290299513617
P2Ru,mp-1413,326.03504799999996,87.36287712925868,6.197070793396386,6.197074276810897
P2Se5,mp-28860,1826.9900959999998,815.327802045095,3.720943185169942,3.7209452767367344
P4Os,mp-1103842,942.375144,234.23808984740512,6.680598971005209,6.68060272621411
P4Ru,mp-27173,674.8951440000001,233.46729289993837,4.8002002274080775,4.800202925632398
PH6NO4,mp-1220029,230.051404,219.37955042936727,1.7413170139172724,1.7413179927230915
POsS,mp-1102534,1013.0750479999999,182.2419066378431,9.230866410680678,9.230871599411785
POsSe,mp-1101841,1200.6550479999999,202.1571776454086,9.862299404533555,9.86230494819733
PPdS,mp-7280,1355.670096,448.8316178972408,5.015562776918197,5.015565596199232
PPdSe,mp-3123,1730.8300960000001,487.5873488066263,5.894556122281345,5.894559435650356
PRuS,mp-1095584,656.4350479999999,180.3430991231211,6.0442348345432,6.044238232047608
PSe,mp-28885,1758.940192,921.5979334272436,3.169265900767657,3.1692676822329973
Pb2O3,mp-20078,1849.5928,312.20383580650474,9.837550822423589,9.83755635217602
Pb2SeN2O9,mp-1192446,1330.7359999999999,412.8977544895329,5.351782835590682,5.351785843863236
Pb3O4,mp-22633,2742.3903999999998,525.7169093310843,8.662164587521179,8.662169456581227
Pb3Se2(BrO3)2,mp-1194412,2070.6488,533.3402618314843,6.446903546717075,6.44690717056423
PbBr2,mp-2456335,1468.032,508.49117281157277,4.794035014492292,4.794037709251104
PbCl2,mp-23291,1112.424,319.9822095088894,5.772894416406985,5.772897661389148
PbI2,mp-567503,922.01788,268.7253638919844,5.697440270130672,5.697443472699559
PbN6,mp-667338,3494.8823999999995,1281.3062466794674,4.529275318381045,4.52927786431668
PbS,mp-21276,957.06,213.4355962686329,7.445972212994699,7.445976398424964
PbSe,mp-2201,286.15999999999997,59.05444982815671,8.046470006595401,8.04647452956945
PbSeO4,mp-22342,1400.6303999999998,362.5049529075341,6.415916467935371,6.415920074364482
Pd(IO3)2,mp-1198404,1824.90136,569.9413963499699,5.3168975273217685,5.3169005159850595
PdS2,mp-13682,682.2,240.46269291447265,4.711000020437429,4.711002668521722
PdSe2,mp-2418,1057.36,276.089714769685,6.3594820579421425,6.359485632649101
Pr10Se14O,mp-560835,10122.0636,2642.9093320437887,6.35968924042202,6.359692815245437
Pr2S3,mp-15179,1512.0412,488.706204242634,5.137654200236373,5.137657088145804
Pr2Se3,mp-32689,4149.5624,1094.1215182398769,6.297756108096,6.297759648106393
Pr2Te3,mp-32581,5316.9223999999995,1335.6738985908535,6.610114466259504,6.6101181818485975
Pr2Te4O11,mp-2980,1936.4173999999998,529.6468688053251,6.071020016028592,6.071023428589126
PrBN2,mp-9028,1078.3923,302.39849290010125,5.921697975730973,5.921701304356601
PrCuSO,mp-6166,505.0361,133.81202691806052,6.267240646514073,6.267244169371523
PrF3,mp-2651,1187.4171575999999,314.0666198268443,6.278134809847106,6.278138338828237
PrLuSe3,mp-13326,1105.5093,262.7259017084971,6.987287394207647,6.987291321808139
PrMoO4F,mp-1192358,1279.3746127999998,431.11984945672225,4.9277515940121654,4.9277543639339525
PrTl2InSe4,mp-1219751,980.3322499999999,239.50878440888204,6.796744442549593,6.7967482630446305
PrTlSe2,mp-999289,503.2109499999999,126.14702468837368,6.624028139229765,6.624031862639825
PtS,mp-288,454.298,74.68767194538908,10.100456437172683,10.1004621147061
PtS2,mp-762,259.214,61.04357903464705,7.051273539602691,7.05127750317022
PtSe2,mp-1115,353.004,69.64917003734249,8.416136651043896,8.41614138181001
Rb2AgPS4,mp-1105212,876.0751240000001,458.1123424363766,3.1755463320233033,3.175548117018915
Rb2BaNb2Se11,mp-571293,5450.54144,1920.5705523722631,4.712577199552886,4.712579848523721
Rb2Cd(IBr)2,mp-1103709,1393.92708,590.8158404043186,3.9177527311177758,3.9177549333125175
Rb2Cd(PSe3)2,mp-541897,1638.108248,693.839135314636,3.920422764694838,3.9204249683904226
Rb2Cd3(B4O7)4,mp-1200744,2258.2556,1146.151939853582,3.271749159755612,3.2717509988274704
Rb2Cd3S4,mp-18556,2545.7144,1011.0137409558909,4.181207477565439,4.181209827849837
Rb2Cd3Se4,mp-16818,3296.0343999999996,1126.4594692966655,4.8587579360266036,4.858760667166599
Rb2Cd3Te4,mp-29901,4074.2744,1340.779552095867,5.045938982790017,5.0459418191457175
Rb2Cu2Sb2S5,mp-1195291,2807.4903999999997,1155.3705322011933,4.0350237074357365,4.03502597554927
Rb2Cu2SnS4,mp-18006,1089.9951999999998,446.4101654524343,4.054521496328551,4.05452377540192
Rb2GeB4O9,mp-1020707,1723.2568,912.3744721831534,3.136360480732156,3.1363622437011416
Rb2Hg3(GeS4)2,mp-1209424,2349.0112,885.2024855259173,4.406477533966144,4.406480010876331
Rb2Mo3Se3O16,mp-1194625,3806.504,1625.9082886384683,3.8875800334730006,3.8875822187074687
Rb2NbCuS4,mp-15221,911.2959599999999,471.7836454388206,3.20749258149302,3.2074943844458303
Rb2NbCuSe4,mp-15222,1286.4559599999998,521.2685951855705,4.098099135014877,4.098101438583526
Rb2Sn2Hg3S8,mp-561434,2533.2911999999997,954.2026780624414,4.408527770238263,4.408530248300901
Rb2Sn3(SbS5)2,mp-1194540,2182.4712,1016.4294314918321,3.5654995585972498,3.5655015627881514
Rb2Te,mp-441,298.5356,156.9269235634012,3.158986458882483,3.158988234569681
Rb2TeBr6,mp-570324,777.9595999999999,320.7435504196711,4.027617410689114,4.027619674639519