Formula,Material ID,formula_unit_mass,volume,density,estimate_formula_unit_mass
Ag2GeS3,mp-9900,769.1428,267.8800172376773,4.767775067226901,1277.19166719411
Ag2GeSe3,mp-1096802,1050.5128,309.1608416617966,5.642427207102897,1744.4175443633521
Ag2HgI4,mp-1229122,923.94428,266.9819945542102,5.746625628681051,1534.2455723016092
Ag2Mo(I2O7)2,mp-1203404,2086.5717600000003,652.7579761325347,5.30799170509228,3464.833922744319
Ag2SnSe3,mp-1096812,4570.611199999999,1334.2855014743436,5.688196752084279,7589.678455839505
Ag3AsS3,mp-561620,1978.8848,609.2106551768919,5.393890423250709,3286.0155187009273
Ag3AsSe3,mp-662599,7624.874400000001,1999.8841113957092,6.331067758862241,12661.401819118237
Ag3SbS3,mp-555269,2166.2384,619.9007608841648,5.802740886522704,3597.1234907690773
Ag5IO6,mp-554648,1524.4837400000001,343.4676252786343,7.370315629057774,2531.464806666477
Ag7AsS6,mp-15077,4089.556,1207.0375974621934,5.62606129032458,6790.867503048429
Ag8GeS6,mp-9770,4511.9024,1207.5522476673805,6.204443918976512,7492.190199886298
AgAsS2,mp-13740,1481.5188,552.3327139333244,4.454054201829025,2460.119845302352
AgBi(PS3)2,mp-556434,1142.3722480000001,457.3324642244417,4.147865928609672,1896.9537464036637
AgBi(PSe3)2,mp-569126,1705.112248,566.7127483749094,4.996191648875751,2831.4055007421475
AgBiPbS3,mp-1229121,620.2436,145.92686384687448,7.057910390573253,1029.938728608624
AgBiS2,mp-1172905,1142.9358,271.2521356624077,6.996772732797138,1897.889546515724
AgBiSe2,mp-27916,1424.3058,297.73718917118396,7.9436345532406545,2365.115423684966
AgBr,mp-23231,187.7722,48.383937881431955,6.444350901853475,311.8030737214285
AgCl,mp-22922,143.3212,42.630581348524416,5.582622712233539,237.99045167199188
AgI,mp-580941,939.09068,268.4034289336924,5.809898805745882,1559.3967612199592
AgN3,mp-2247,299.77660000000003,115.16431806585773,4.322439136641746,497.7907555525215
AgP15,mp-1195243,1144.9492599999999,684.410342322954,2.7779138594717816,1901.2329755047604
AgPd(IO3)3,mp-1193499,1477.99242,465.41801932070825,5.273246955781274,2454.264153548675
AgSbS2,mp-3922,1175.0328,387.33956674979146,5.037409127368563,1951.1878689363843
AgTe,mp-568761,3767.4912,859.737489564989,7.276716900919564,6256.066320671713
Al2S3,mp-1228491,300.31615439999996,217.81180719136236,2.2895301826964203,498.6867067122773
Al2Se3,mp-11674,581.6861544,252.55345149639967,3.8245867485017886,965.9125838815194
Al2Te3,mp-29502,3494.1046175999995,1396.1935742271558,4.155653863056866,5802.097220312253
AlAgO2,mp-9631,333.69707719999997,87.85832335519181,6.30693839740901,554.1170331008361
AlAgS2,mp-5782,397.9594772,169.43391449112184,3.900206524762423,660.8272588143119
AlAgSe2,mp-14091,585.5394772,196.76109454324234,4.941582476882666,972.31117692714
AlAgTe2,mp-14092,780.0994771999999,245.06077562489892,5.285977139432593,1295.3856577248357
AlCuS2,mp-4979,309.3150772,146.42766229382923,3.5077372781402407,513.6297695789949
AlCuSe2,mp-8016,496.89507719999995,172.56789465764706,4.781385838476759,825.1136876918229
AlCuTe2,mp-8017,691.4550772,218.71279783515297,5.249753008760489,1148.1881684895188
AlN,mp-661,81.9764772,42.52728307818043,3.200889713142437,136.1251429328442
AlP,mp-1550,57.9553006,40.983457924417976,2.3481923106714797,96.23704076284642
AlSb,mp-2624,148.7415386,59.15180866014202,4.175546636123753,246.9911356714919
AlV(TeO4)2,mp-1194859,1844.4729544,659.6116814819885,4.64336742973821,3062.81939806832
As2Ir,mp-15649,1368.2408,212.13472096243026,10.710256626582213,2272.0173009160376
As2O3,mp-1582,791.3656,319.14943889553336,4.117486464369091,1314.0934947633489
As2Os,mp-2455,680.1464,102.41355313495791,11.02793169102378,1129.40966820735
As2Pt,mp-2513,1379.7087999999999,216.90309132645186,10.562598941863977,2291.0603629318057
As2Rh,mp-15954,1010.9947999999999,209.600517428747,8.009504852964664,1678.7963615294536
As2Ru,mp-766,501.8264,101.2371077110571,8.23119467448224,833.3023418512381
As2S3,mp-1189572,984.1528,526.4141283759965,3.1044458797969714,1634.2241719037763
As2Se3,mp-909,1546.8928,561.6818628364059,4.573186524611721,2568.6759262422606
AsBr3,mp-23317,1258.5344,560.7410145346511,3.72693540099669,2089.8455378599906
AsI3,mp-23218,911.27002,340.2057580755575,4.447894935673873,1513.1994684313631
AsOsS,mp-1214793,1188.8663999999999,197.09464264356782,10.016300167723147,1974.159102168102
AsP,mp-1228799,211.790724,92.26506394301332,3.8117002917021154,351.6867711454982
AsPPt,mp-1228792,1203.9174480000001,206.4863758833495,9.681762037872932,1999.151955365374
AsPRu,mp-1228753,413.930724,96.24478717678332,7.141666143491955,687.3481380680221
AsRuS,mp-1214786,832.2264,194.96319849644567,7.088232343916291,1381.9444494558782
AsS,mp-542810,1711.7856,871.8557048070456,3.2602721376611328,2842.48686244332
AsSeI,mp-505373,1123.14428,397.0435141879109,4.69728099748195,1865.0249543683287
B2Mo(PbO2)6,mp-1196917,3105.5095999999994,693.0149119258148,7.441138601435116,5156.820012501337
B2O3,mp-306,208.86059999999998,135.3764045815366,2.561902769138968,346.8211857735159
B2Se2O7,mp-558521,1166.1511999999998,541.0833060647883,3.5788197555860344,1936.4396251624692
B3Pb10Br3O13,mp-1229254,5104.2744,1206.2595178762904,7.026553508791071,8475.847047846275
B3Pb3NO10,mp-1200969,3312.1348,921.309525454465,5.969686709287374,5499.929229245377
B4C,mp-1238815,165.76409999999998,108.28781431659964,2.541908945405635,275.257763889789
B6As,mp-624,279.5752,129.317419464123,3.589969113026614,464.24554165250817
B6P,mp-28395,191.67952400000001,122.07265749137633,2.607392551372756,318.2913378692923
BAs,mp-10044,85.73259999999999,27.982045483901548,5.087631340714321,142.36233158119114
BH(PbO2)2,mp-1105235,980.4330799999999,263.1503813722347,6.186756876571033,1628.0474315269626
BP,mp-1479,41.784762,23.272944325085422,2.9813687825821957,69.38522968958314
BPb7Br3O7,mp-1201413,7251.675199999999,1626.734620148762,7.402369027342132,12041.689967894365
BSb,mp-997618,132.571,36.84952451081099,5.974007196039766,220.13932459822857
BSbPbS4,mp-1228703,936.0619999999999,352.52513281924956,4.409238874201632,1554.3675197597288
Ba(BO2)2,mp-540659,1337.6796,602.1936302946864,3.688629574688248,2221.269234393861
Ba(GaS2)2,mp-849286,4860.396,2083.8769584043566,3.8730105463262645,8070.877437146371
Ba(GaSe2)2,mp-7841,1185.226,414.71996409700495,4.745645848121506,1968.1140757500516
Ba(InS2)2,mp-21943,3961.7839999999997,1606.1243984397615,4.096007203315983,6578.697105430813
Ba(InSe2)2,mp-21766,5462.423999999999,1850.4140633883485,4.901912836591853,9070.568450333436
Ba(ZnAs)2,mp-7427,1671.9528,467.19634427852776,5.942561357577934,2776.342941911256
Ba12In4S19,mp-1229044,5432.861999999999,2089.941276587223,4.31661869905659,9021.479594446606
Ba2B6H4O13,mp-1199077,1103.08792,497.3501910715964,3.682959447764339,1831.720585054535
Ba2Cd(BO2)6,mp-1190588,643.9238,268.8436429007194,3.977258358340241,1069.2606258135252
Ba2DyGaSe5,mp-1105698,1803.3539999999998,545.8254191750558,5.486259273954726,2994.5397679093758
Ba2DyGaTe5,mp-1105922,2289.754,660.3041375477908,5.758294933640973,3802.225969903616
Ba2DyInSe5,mp-1106127,1893.5439999999999,557.8393648875772,5.636575660019457,3144.30378632603
Ba2DyInTe5,mp-1189860,2379.944,677.4336683519982,5.833766718347979,3951.9899883202697
Ba2ErGaSe5,mp-1105790,1812.8719999999998,541.5181433424789,5.5590838751295655,3010.344778745275
Ba2ErGaTe5,mp-1105724,2299.272,665.0260627385627,5.7411749624021455,3818.0309807395147
Ba2ErInSe5,mp-1188122,1903.062,551.3263096431463,5.731830209966496,3160.1087971619286
Ba2ErInTe5,mp-1106146,2389.462,671.5406101903811,5.908495985121887,3967.7949991561686
Ba2GaAsSe5,mp-1195309,3256.3944,1099.0109011748523,4.920215178645581,5407.370117457466
Ba2GaBiS5,mp-1201906,2854.7295999999997,1012.5076926285598,4.681831120781826,4740.390025379391
Ba2GaBiSe5,mp-1203584,3792.6295999999998,1127.5073101089654,5.585604243519177,6297.80961594353
Ba2GaBiTe5,mp-1202829,4765.4295999999995,1350.754063849027,5.858344040352605,7913.182019932009
Ba2GaS4,mp-1199702,3781.096,1563.02197793212,4.016998936170856,6278.657622564993
Ba2GaSbSe5,mp-1203387,3443.7479999999996,1123.3205372351147,5.090691303125992,5718.478089525615
Ba2GaSbTe5,mp-1200935,4416.548,1337.2336942096854,5.484344677575937,7333.850493514095
Ba2GaSe4,mp-1195574,5281.736,1791.5354824379092,4.895537405451072,8770.528967467617
Ba2GdGaSe5,mp-1190156,1792.8539999999998,548.5889302385677,5.426839558019166,2977.1041077100763
Ba2GdGaTe5,mp-1105573,2279.254,664.7970764895899,5.693151254048244,3784.7903097043154
Ba2HgS5,mp-1194545,2542.276,910.7392948649457,4.635298641314908,4221.548616079581
Ba2In2S5,mp-22841,5316.92,2041.8946102537304,4.323902580304948,8828.953373986871
Ba2In2Se5,mp-573635,7192.719999999999,2337.8500275694064,5.108878847773123,11943.792555115151
Ba2InAgS4,mp-1197611,2502.4008,888.9663264402408,4.67434385881705,4155.334288691092
Ba2InBiS5,mp-864638,1517.5548,508.7964737048264,4.952783993877049,2519.959031106349
Ba2InSbSe5,mp-1189339,1812.0639999999999,563.9965038747204,5.335144885663771,3009.0030631794616
Ba2NaCu3S5,mp-1191092,1297.21353856,480.41085870553957,4.483815716208886,2154.073758501305
Ba2NdGaS5,mp-1228486,1297.888,461.33916065863355,4.671603696062709,2155.1937280713405
Ba2NdGaSe5,mp-1205363,1766.8379999999997,562.8412374724637,5.212666251194766,2933.9035233534105
Ba2NdInSe5,mp-1190093,1857.0279999999998,567.780586129152,5.431090137817126,3083.6675417700644
Ba2NdInTe5,mp-1205400,2343.428,689.4538646749269,5.644110422963621,3891.3537437643045
Ba2ScTaO6,mp-1205823,596.5541920000001,143.7159044723548,6.892776027795513,990.601541159997
Ba2SmGaSe5,mp-1189376,1779.074,557.0061959290869,5.303750480629185,2954.2218793723287
Ba2SmGaTe5,mp-1189729,2265.474,670.0210417624331,5.61461185080276,3761.908081366568
Ba2SmInSe5,mp-1188304,1869.264,563.0723235037008,5.512588291455211,3103.9858977889817
Ba2SmTaO6,mp-1214622,701.9582800000001,161.64624337344023,7.21098815993186,1165.6291470633414
Ba2SnSe4,mp-1192595,2836.816,933.839719250766,5.044381488223018,4710.643792755945
Ba2SnSe5,mp-31307,12610.624,4080.1026864279265,5.132330094499807,20940.433806203557
Ba2TaInO6,mp-1079630,666.41628,148.17176644031986,7.468428663189091,1106.6102675582442
Ba2ThCu2Se5,mp-1078405,1028.58406,272.77735254430667,6.261531608034104,1708.0040149120382
Ba2V2Te2O11,mp-1204192,1615.4607999999998,580.7676978338706,4.61894795279787,2682.5357689608886
Ba2V2ZnO8,mp-556688,2279.7648,832.1545982567941,4.549200978988435,3785.6385130595354
Ba2YGaSe5,mp-1106265,1656.1657,545.6458567225851,5.04013328742482,2750.1278456129353
Ba2YGaTe5,mp-1189739,2142.5657,658.8184170401735,5.400295370598644,3557.814047607176
Ba2YInSe5,mp-1205397,1746.3556999999998,559.4684048644975,5.1832987150220555,2899.891864029589
Ba2YInTe5,mp-1106096,2232.7556999999997,682.4808463080432,5.432501272497813,3707.578066023829
Ba2ZnSe3,mp-1190528,2307.772,730.2949265261692,5.247394475317219,3832.1455628056146
Ba2ZnTe3,mp-1190380,2891.4519999999998,895.4649408087806,5.361872683549311,4801.369005198701
Ba3Bi2TeO9,mp-556407,2203.0728,511.6802199628292,7.14956003425265,3658.2884509638484
Ba3Cd(SnS4)2,mp-1228659,4073.328,1673.8646506646155,4.04090036335375,6763.920275075643
Ba3Dy2(PS4)4,mp-560798,5495.664192,2587.0104450156455,3.527533143638132,9125.765087730722
Ba3Er2(PS4)4,mp-560534,5533.736192,2568.854420882231,3.577075079217028,9188.985131074318
Ba3FeS4Br,mp-1195713,2703.96,1040.5661353344017,4.3149887950954655,4490.031214523735
Ba3Gd2(PS4)4,mp-684036,5453.664192,2591.2172795475785,3.494891192032606,9056.022446933523
Ba3GeS5,mp-1200759,2579.7839999999997,1019.5055475527674,4.201872295518717,4283.832115389613
Ba3Ho2(PS4)4,mp-559171,5515.106752,2578.7872870152287,3.551301134559748,9158.050218165436
Ba3In2(PO4)4,mp-1200796,2043.004896,748.7657292020361,4.530775529321387,3392.4894430630698
Ba3InS4Cl,mp-1205371,1381.024,523.8349524113831,4.377799330410555,2293.244303912198
Ba3MgTa2O9,mp-6325,942.1763599999999,212.27990794747208,7.3700835304400085,1564.520653406985
Ba3Nb2Se9,mp-1195033,5233.73504,1660.893532193597,5.2326180635281645,8690.821498153313
Ba3P3ClO10,mp-1194911,2801.397144,1186.9479682271985,3.919151911622161,4651.829398673665
Ba3Sb2S7,mp-1195624,3519.8239999999996,1457.6758543085587,4.009674196276463,5844.805259556277
Ba3Ta2Se9,mp-1195068,5938.06704,1661.7346515426332,5.933794719184651,9860.392300009824
Ba3Ta2ZnO9,mp-1214475,983.28036,213.10688841245232,7.66176759167164,1632.7754512005117
Ba3Tb2(PS4)4,mp-554264,5467.066992,2596.2951919657785,3.496627944321598,9078.278319935349
Ba3ThSe7,mp-1095255,1196.7390599999999,356.28746512126656,5.577608409489747,1987.2319616561613
Ba3V2(SeO4)4,mp-1200758,4342.777599999999,1684.4187018448101,4.2812109925266,7211.351862355387
Ba4Ga4SnSe12,mp-1195344,3788.86,1285.203638847826,4.895372108904389,6291.550047878076
Ba4LiGa5Se12,mp-1197353,3704.768,1271.5281880449352,4.838203395355748,6151.911996689548
Ba5(Ga2Se5)2,mp-1228123,1755.127,566.9750778699371,5.140361656272003,2914.4569503444577
Ba5(GaSe4)2,mp-1204617,5831.044,1881.7446481894565,5.145584641561135,9682.67636106353
Ba5In4Te4S7,mp-1105201,1880.7619999999997,661.8782175607454,4.718509679146709,3123.078775976748
Ba8Al10B12O41,mp-1019529,2154.138786,961.963716660688,3.7184683237829623,3577.0316090312967
Ba8Sn4S15,mp-1195594,16435.448,6502.604306898791,4.197042014707602,27291.703481072833
BaAgSbS3,mp-1190401,1852.6008,664.0076507774867,4.632952646874406,3076.3160032144133
BaAl4Se7,mp-1191234,1595.9463087999998,641.7007611769973,4.129855151017178,2650.1311939584666
BaBClF4,mp-1103527,519.1692256,242.96215138054413,3.548292507234951,862.1007812852686
BaBSbS4,mp-866301,1592.632,732.6209720150708,3.609817020994163,2644.627654717291
BaBiClO2,mp-552806,827.5184,232.14067732689642,5.919370303186048,1374.1266315303253
BaCaB2O5,mp-1019542,2232.192,1024.7571456742523,3.6170931188902844,3706.642020151987
BaCdSnS4,mp-12306,3973.6639999999998,1606.086617582883,4.108386333155849,6598.424309542022
BaCu2SnSe4,mp-12364,1397.9379999999999,437.9902632102209,5.299959512046295,2321.3306616846708
BaCuTeF,mp-13287,694.9428063999999,188.5504196415294,6.12027107271242,1153.97967907984
BaF2,mp-1029,175.3238064,60.32690236247557,4.825907156361877,291.1320298322151
BaGa2GeS6,mp-1227983,541.803,241.64979824809052,3.7230945542831164,899.6850479010795
BaGa2GeSe6,mp-1227970,823.173,279.9605780435599,4.8825121544706915,1366.9109250703218
BaGa2SiS6,mp-1227993,497.24850000000004,232.8189849778162,3.5465344896032667,825.70056005825
BaGa2SiSe6,mp-1227978,778.6185,276.506229328853,4.6759396356665635,1292.9264372274922
BaGa4S7,mp-4309,1281.348,556.2945318144618,3.8248235246350175,2127.7284119097767
BaGa4Se7,mp-1191072,1937.8779999999997,644.9100652346652,4.989722286523408,3217.922125304674
BaGe2,mp-2139,2260.8559999999998,741.2725268258605,5.064587686842674,3754.2397119570087
BaHgS2,mp-28007,1608.188,460.1347096257203,5.803646072710984,2670.459000437321
BaIn2(P2O7)2,mp-1205018,1429.6992959999998,586.1095018288697,4.05055971126653,2374.071534498516
BaLa2Te5O14,mp-559703,2554.2590800000003,757.221157911418,5.601331849015704,4241.4469885577755
BaNaB5O9,mp-1019554,1433.4654771199998,775.616724116721,3.0689454615498435,2380.325425380168
BaO,mp-1342,153.3264,43.453575205003915,5.859229670745691,254.6044771411382
BaPd(IO3)4,mp-1106270,943.3576800000001,321.65937982617254,4.870003424938772,1566.4822814171416
BaReH9,mp-28911,665.21092,229.13336978879272,4.820811221024321,1104.608720188927
BaS,mp-1500,169.392,67.12620118023263,4.190346371817915,281.28203356950723
BaSe,mp-1253,216.28699999999998,74.09331260733886,4.84730673334938,359.15301309771417
BaSi2,mp-1477,1547.984,713.4763881255375,3.6027652060427426,2570.487906471734
BaSn2S5,mp-1202711,2140.2879999999996,837.0754599924151,4.245772343878512,3554.0318377751796
BaSnO3,mp-3163,304.0352,71.13628093297905,7.097114448493584,504.86232722154426
BaTaNO2,mp-1227303,364.28038000000004,70.80942081071547,8.542674057494262,604.9018021858933
BaTe,mp-1000,264.927,89.09415786940792,4.937715825789215,439.9216332971382
BaTeMo2O9,mp-19049,1201.6032,389.78945260179916,5.118940604557455,1995.3090561515733
BaTiO3,mp-5777,233.19219999999999,65.57310741671338,5.905237274567591,387.22475812640045
BaV2SeO8,mp-1200210,1784.6607999999999,715.8785589847835,4.139667184937439,2963.498979029609
BaZnSO,mp-548469,501.6008,161.26306331513743,5.165024817928211,832.9277242378133
Be3N2,mp-18337,440.399568,268.4366404588809,2.7242953358663557,731.3006875777631
BeO,mp-2542,50.023163999999994,27.51023288811809,3.0194371089026797,83.0654180569387
BeS,mp-422,41.07718199999999,28.880721048437852,2.361792329991975,68.21026545683831
BeSe,mp-1541,87.97218199999999,34.50577300165209,4.233530574088316,146.08124498504526
BeTe,mp-252,136.612182,45.40050984281411,4.996636953414623,226.8498651844693
Bi2(MoO4)3,mp-23388,3591.0944,947.8065623428338,6.291529073515254,5963.152543048487
Bi2CO5,mp-556210,4079.748,861.8579406588494,7.860438033099017,6774.580935883216
Bi2I4O13,mp-1204764,4534.28352,1188.6516629956714,6.334366205339656,7529.354924000562
Bi2Mo2Se2O13,mp-1200193,1951.5059999999999,556.3938226291571,5.82420548163448,3240.551951704299
Bi2O3,mp-23262,1863.836,327.9206233179676,9.438175801265304,3094.972491735477
Bi2S3,mp-22856,2056.6232,517.2810621133061,6.602026285137526,3415.1031688759044
Bi2Se3,mp-541837,654.8408,151.77783048479455,7.164344933185313,1087.3887308035971
Bi2Te2Se,mp-29666,752.1208,171.2386874142613,7.293480171224617,1248.9259712024452
Bi2Te3,mp-34202,800.7608,181.7667606640336,7.315389164356592,1329.6945914018695
Bi4Pb7Se13,mp-1190436,3312.8016,730.245597533265,7.533131997340656,5501.036476694986
Bi5IO7,mp-554445,5135.20908,1012.1835905508891,8.424573735539456,8527.215292499042
Bi7O5F11,mp-1190898,1751.8422352000002,337.5345547163007,8.618384190366806,2909.0024700694657
BiBPbO4,mp-556601,1963.956,430.26429607165056,7.57958699538571,3261.2256630834695
BiBr3,mp-2913080,1794.7696,691.496424150713,4.309906649201264,2980.2850363460557
BiBrO,mp-23072,609.7676,129.50609729692894,7.81849613632773,1012.5429213469221
BiClO,mp-22939,520.8656,113.58578538575841,7.614664760301017,864.9176772480489
BiI3,mp-22849,1179.38762,367.81189633263233,5.324512983950062,1958.4192176743952
BiIO,mp-22987,703.7685399999999,154.0010489653947,7.58848827566523,1168.6351545140446
BiP3(PbO4)3,mp-1227709,2230.988972,590.0824587631331,6.278180769726738,3704.6443451597734
BiPO4,mp-1190564,1215.807048,293.9607729196479,6.867906491739534,2018.895100651621
BiPbBrO2,mp-1227444,528.0831999999999,106.06848147333677,8.267326653823874,876.9027840151409
BiPbClO2,mp-23084,967.2643999999999,204.95523902001557,7.836737092505119,1606.1803239314086
BiSBr,mp-23324,1283.7975999999999,343.1261298289098,6.212864259187372,2131.7960684073196
BiSCl,mp-23318,1105.9936,325.1120564496465,5.648961777257308,1836.5455802095735
BiSI,mp-23514,1471.7994800000001,389.3784591920204,6.27661976939594,2443.9805347415654
BiSbTe3,mp-1227340,713.5404,175.60495542387753,6.74731363324774,1184.8617097973904
BiSeBr,mp-569707,1471.3776,393.0647892813887,6.215972666966726,2443.2799865201478
BiSeI,mp-23020,1659.37948,435.5874447609272,6.325858300086527,2755.464452854393
BiTeI,mp-22965,463.48487,120.86064635924215,6.367951492873749,769.6347334130222
BiTeNO6,mp-1195032,1786.334,499.86526314823703,5.934153884416214,2966.277392995844
CBr4,mp-680422,5306.0271999999995,2884.9841982496796,3.0540428815477614,8810.86545404221
CI4,mp-27962,519.62858,219.79398968328906,3.925783222986315,862.8635572118834
Ca(BiO2)2,mp-558751,4176.291200000001,985.1659924960493,7.039315956824002,6934.894691097795
Ca(GdS2)2,mp-36358,965.6759999999999,300.5017566265973,5.336217470670494,1603.5427236780213
Ca(LaS2)2,mp-35421,892.2978800000001,329.4791705502156,4.497083947097454,1481.6954887843588
Ca(NdS2)2,mp-35876,913.644,315.7603437017953,4.804724802293355,1517.1415549646902
Ca(PrS2)2,mp-34185,900.3065999999999,321.28573521660104,4.653161087932957,1494.9942812178192
Ca(SmS2)2,mp-36100,938.116,307.2174140991553,5.070605361256469,1557.7782670025256
Ca10Ge16(B2O17)3,mp-1019569,4887.7108,1951.613222310036,4.158731164997908,8116.234729642738