Formula,Material ID,formula_unit_mass,volume,density,estimate_formula_unit_mass
GaAgS2,mp-5342,483.4424,171.9105623236812,4.669724656821038,802.7749916508639
GaAgSe2,mp-5518,671.0224000000001,198.74062122913062,5.606598705752502,1114.258909763692
GaAgTe2,mp-4899,865.5824,245.11256665298265,5.8639726644300865,1437.333390561388
GaAs,mp-2534,144.6446,47.531859385343836,5.05320036242451,240.18800907273032
GaBi25O39,mp-849761,5918.2096,1098.0214836444393,8.950114721352271,9827.418245127159
GaCuGeSe4,mp-1224851,521.749,163.89084271772913,5.2863514708485955,866.3845974594832
GaCuO2,mp-11019,330.5356,87.56813597285675,6.267888091990467,548.8672767020709
GaCuS2,mp-5238,394.798,148.55064780143238,4.4131581525774095,655.5775024155467
GaCuSe2,mp-4840,582.3779999999999,174.38032577841304,5.545702568288753,967.0614205283747
GaCuTe2,mp-3839,776.938,218.2897171285937,5.910200069415345,1290.1359013260706
GaGeTe,mp-8211,539.9259999999999,172.40117104671916,5.2004763693287765,896.5682160730714
GaHSeO4,mp-1194398,854.7541600000001,313.3623123298035,4.529430053238326,1419.3526750188669
GaN,mp-804,167.4594,45.72832358928343,6.0809768201203696,278.07287576939603
GaP,mp-2490,100.696762,40.5058667192971,4.128066394428307,167.21090718112237
GaS,mp-2507,407.152,179.0698300424525,3.7755762759368254,676.0918020443231
GaSe,mp-568263,1189.464,407.231921416199,4.850188151865577,1975.1514403143021
GaTe,mp-542812,1183.9379999999999,381.42452478437787,5.154297046168311,1965.9753014322705
Gd(CuS)3,mp-1226384,888.166,247.3839103035505,5.961722970649835,1474.8343406258555
Gd2(MoO4)3,mp-3572,3177.2511999999997,1224.8457871457385,4.307440003770833,5275.949742001729
Gd2O3,mp-504886,2899.9856,630.9088590562675,7.6327021126009695,4815.53938137744
Gd2S3,mp-669509,1642.78,445.18002117190946,6.127634300946648,2727.9003678291474
Gd2Se3,mp-1188175,2205.52,505.5070882187631,7.244907554259087,3662.3521221676315
Gd2Te3,mp-1105966,2789.2,626.1443176199352,7.396977716201284,4631.57556456072
Gd4GaSbS9,mp-1199284,4436.272,1355.1917146481294,5.4358382555315625,7366.602966063715
GdScS3,mp-510490,1193.603648,431.9132118420603,4.588943873902729,1982.0254875402745
Ge(Bi3O5)4,mp-23352,2900.3927999999996,523.256044854023,9.20431899497497,4816.215552885359
Ge(SeO3)2,mp-1205339,653.1128,253.46476872417128,4.2787773809965755,1084.5193192965123
Ge2Sb2Te5,mp-1224375,1026.8,273.08510247018296,6.243626979875427,1705.04151358488
Ge3Ru2,mp-21945,3360.48,607.6706385819786,9.182948736094252,5580.208322527967
GeAs,mp-9548,885.3696,296.32059750212716,4.961487056833643,1470.1908091800153
GeAs2,mp-17524,1779.8656,604.6222314840644,4.888236336998379,2955.5363620974485
GeI2,mp-27922,979.34682,343.1439610400316,4.739246027910595,1626.2436543604779
GeO2,mp-470,209.2776,56.00426327829353,6.20512814957392,347.5136305642881
GeP,mp-1095275,621.682572,270.66504068420005,3.814043347529473,1032.3281978303673
GePb2(SeO3)4,mp-1198509,1989.7455999999997,583.1223163424794,5.666135918308641,3304.0503013954567
GePbS3,mp-624190,1504.1399999999999,517.5790037198703,4.825704315060559,2497.6832316357236
GeS,mp-2242,418.82,175.6988115830953,3.9582906999032064,695.4669718734119
GeS2,mp-572892,2188.3199999999997,1312.4613676311556,2.7686840465107885,3633.790850222111
GeSe,mp-700,606.4,198.83584123189982,5.0642323021222575,1006.9508899862398
GeSe2,mp-540625,3688.96,1488.2818239048045,4.115928916643514,6125.662195124735
H7Se2NO6,mp-24354,1099.9147199999998,690.8349377203011,2.6438317791447266,1826.4513624884
HfHg4(AsCl3)2,mp-1198529,10747.2896,3265.320274106299,5.465403924504257,17846.294240863885
HfHg4(PCl3)2,mp-1202310,10044.124192000001,2991.657066837693,5.57505764797708,16678.66061059816
HfO2,mp-352,841.9552,136.51657937039403,10.24124328616322,1398.0995019270163
HfS2,mp-985829,242.62,69.47166295179909,5.79919885634548,402.87998833849196
HfS3,mp-9922,549.37,167.9432437929641,5.431896671846112,912.2503470180419
HfSe2,mp-985831,336.40999999999997,78.74332002833815,7.094213797359179,558.6219473949059
Hg3Bi2(SCl4)2,mp-1104411,1367.4848,429.1832321729204,5.290891542721745,2270.761933381688
Hg3Bi2(TeCl4)2,mp-1192395,3117.1096000000002,900.0137516600748,5.75111464255587,5176.082265673899
Hg8Bi3As4Cl13,mp-1204118,17953.419599999997,5170.776676659338,5.765546742607125,29812.35462486214
HgBr,mp-23177,560.988,126.95326347785603,7.337680531987949,931.5424898938008
HgBr2,mp-571558,1081.194,305.1210214436881,5.884107450475566,1795.3648755735203
HgBrCl,mp-1224070,1263.788,382.22818264363895,5.49035743880987,2098.5693459002805
HgCl,mp-22897,472.086,113.267339996862,6.920946901522058,783.9172457949276
HgCl2,mp-22855,1085.984,339.6929744266541,5.308672811812608,1803.318857702534
HgI,mp-22859,654.98894,151.3211478162347,7.187592340905009,1087.6347230609233
HgO,mp-1224,866.3576,133.5742810249583,10.77019190675644,1438.6206404458162
HgPS3,mp-27178,655.517524,236.62949411143137,4.60007093169168,1088.512457442903
HgSe,mp-1018722,838.65,167.628586361131,8.307718381660244,1392.6110882040898
Ho(CuTe)3,mp-1224142,1476.7366399999999,335.0259509349554,7.319369962106921,2452.17888179962
Ho2(MoO4)3,mp-1212381,1619.34688,563.1723238191463,4.774717511651633,2688.988756616822
Ho2HfS5,mp-1195954,2674.7025599999997,637.5274239291255,6.9666777078264,4441.448092415029
Ho2O3,mp-812,3022.87072,582.7960001301811,8.612953628233592,5019.594923841269
Ho2S3,mp-878,2556.33384,702.0518684032684,6.046408249359246,4244.892208591594
HoN,mp-883,178.93702,28.612982912956948,10.384513669018196,297.1319121709855
In2As2Cl2O5,mp-1191856,1060.7644,416.67286490717396,4.2273948581963,1761.4407266585088
In2B(PO4)3,mp-1198577,1050.722172,471.5491121666688,3.7000710418729787,1744.7652147488043
In2Bi3Se7I,mp-1198248,6144.80668,1575.562472819971,6.476221492240727,10203.691548844643
In2HgS4,mp-22356,1116.972,328.370782269334,5.648418624459176,1854.775642298335
In2HgSe4,mp-20731,746.066,206.27363101993924,6.005962725997882,1238.8717392619956
In2HgTe4,mp-19765,940.626,254.09628894446192,6.1470642745242445,1561.9462200596915
In2O3,mp-22598,2221.0735999999997,526.9797159082179,6.998712419580598,3688.1794825939
In2S3,mp-22216,2606.648,961.988411199058,4.499472952568761,4328.440836874756
In2Se2O7,mp-1199125,3996.4143999999997,1222.5172087479307,5.428309875751703,6636.202237522798
In2Se3,mp-612740,2799.096,895.3792135737424,5.191105833931657,4648.008259163794
In3CuSe5,mp-1224175,802.8,246.45532312495087,5.409015905047498,1333.0807626664798
In4As5(BrO4)3,mp-1200791,2531.1696,947.8780429687968,4.434226571834049,4203.106004990295
In4Bi3S10,mp-1224757,5627.452799999999,1621.987658214985,5.761206118011645,9344.605219847554
In4Se3,mp-19932,2784.608,800.3277504722039,5.777570959445928,4623.950369166892
In4Te3,mp-617281,3368.2879999999996,928.9629253869975,6.020879476142618,5593.173811559979
In5AgS8,mp-36751,938.4782,322.33703641936035,4.834628163004504,1558.379714252448
In5AgTe8,mp-1224268,1702.7582,505.11749099829217,5.5977006586831015,2827.4965120734955
In5CuS8,mp-674514,894.1560000000001,302.38722674841455,4.910197383668338,1484.7809696347897
In6S7,mp-555853,1826.726,609.3390456316978,4.978098660704235,3033.349886973951
In6Se7,mp-1192955,2483.256,686.4684954402516,6.006894165950477,4123.543600368849
InAgO2,mp-20329,509.36999999999995,118.28147641161965,7.150982639162847,845.8287843540419
InAgS2,mp-19833,573.6324,196.588378662141,4.845347505025015,952.5390100675178
InAgTe2,mp-22386,955.7724,272.3712401531629,5.8269639925476975,1587.0974089780418
InBi2S4Br,mp-1206068,740.9428,204.52044212785515,6.015850800610107,1230.3644655159903
InBi2S4Cl,mp-559521,696.4918,193.0865795780102,5.98980957658576,1156.551843466554
InBi2Se4Br,mp-571169,1857.0456,478.7394081114564,6.441284579897618,3083.696767257637
InCuGeSe4,mp-1224210,566.844,187.2500371630063,5.0267899591838905,941.2666066678105
InHg7S6Cl5,mp-1196151,3777.2060000000006,1033.0874529048892,6.071313815649804,6272.19812559592
InP,mp-20351,145.791762,51.44801613145897,4.705583122405697,242.09291638944936
InPS4,mp-20790,274.051762,148.90520918656287,3.0561298664938237,455.07365707156526
InS,mp-19795,587.5319999999999,198.27912350889554,4.920436511985393,975.619838877631
InSb2S4Br,mp-559864,1133.004,413.6061588860393,4.548765447983686,1881.397404614066
InSb2S4Cl,mp-556541,1044.102,408.72293024780345,4.241925353843078,1733.7721605151933
InSb2Se4Br,mp-570321,1508.164,469.94804962506214,5.329025714305604,2504.365240839722
InSe,mp-20485,775.112,246.56121587528438,5.220219864755624,1287.103756990459
IrS2,mp-2833,2050.776,405.32579294529916,8.401620928439797,3405.3936648456815
IrSe2,mp-1361,2801.096,476.9405361681865,9.752430302247923,4651.329337296994
K10Zn4Sn4S17,mp-1224229,1672.564,1028.1992020550306,2.7011865578554635,2777.3578633887623
K2Ag3Sb3S7,mp-1223709,1983.0724,805.0869069974683,4.0902033848459745,3292.969192096221
K2Al2B2O7,mp-560217,797.3324316000001,535.6370482027401,2.471826129617969,1324.0016517389724
K2Au(IO3)5,mp-1195201,2299.3530379999997,832.224040424509,4.58790585472247,3818.165547504394
K2BaNb2S11,mp-1212599,6032.410879999999,3400.06816347644,2.9461332686285986,10017.05393202288
K2Bi8Se13,mp-28800,2776.5198,705.0161079618769,6.53959469155523,4610.519597088419
K2Cd2Te3,mp-571637,8229.823199999999,3146.506426838055,4.343211511741299,13665.942934811024
K2Cd3S4,mp-18101,2174.7583999999997,954.7885720764292,3.7822732584271366,3611.2712836165088
K2Cd3Se4,mp-1198419,2925.0784,1065.6002399202484,4.558188684746677,4857.20695606782
K2Cd3Te4,mp-18531,3703.3184,1334.4596269230728,4.6082359894527585,6149.504879258606
K2Ce(PO4)2,mp-1195550,1633.0212960000001,700.135814839327,3.8730994774493355,2711.6956585977623
K2FeGe3Se8,mp-1200819,3934.5663999999997,1699.065259564877,3.8453503657681294,6533.501217331721
K2Ga3CuSe6,mp-10973,3298.6863999999996,1313.6620051296277,4.1697161174434685,5477.597635662113
K2Gd2Sb2Se9,mp-1199482,5387.4264,1747.8917918181535,5.118184116149749,8946.032005632196
K2Ge2PbS6,mp-561132,1246.1332,633.2082364598252,3.267886836652918,2069.252860787271
K2Ge3(BO5)2,mp-560019,955.4652000000001,457.0454165947282,3.4713996328807797,1586.5872913767823
K2Hg(PSe3)2,mp-568855,3257.976496,1355.568189860557,3.9909443804734663,5409.997249672579
K2Hg3(GeS4)2,mp-17792,2163.5332,796.9853382781444,4.507776025400731,3592.6314004861106
K2Ho4Cu4S9,mp-1172870,1280.68688,403.49503993574325,5.27052475455642,2126.630596322066
K2In2P3Se10,mp-1199715,4761.4155439999995,2031.4981151238244,3.891963504306067,7906.51652312849
K2In3AgSe6,mp-21705,4017.1152,1457.8481808855563,4.575631956806841,6670.576724632672
K2In3CuSe6,mp-21713,3839.8264,1465.321734016757,4.3513868648379175,6376.181746162038
K2La2Sb2S9,mp-1223734,1776.2250800000002,800.1674206959846,3.686092510301465,2949.49113641471
K2La2Ti3O10,mp-6548,659.60254,229.90248601795102,4.764175477480776,1095.2957860985891
K2Mn(SnSe3)2,mp-669410,3377.2585799999997,1416.8781586481362,3.9580466223368003,5608.069810100041
K2MnSnSe4,mp-628305,2270.73858,949.2267982172823,3.9723384645348903,3770.650122125809
K2Mo2Se2O11,mp-1195788,2415.96,1089.9361367268739,3.68076241181482,4011.795963342936
K2NbCuS4,mp-9763,725.81796,437.92127287621315,2.7522049109512037,1205.249077819916
K2NbCuSe4,mp-9003,1100.97796,485.22742179353367,3.767752670053107,1828.2169140455717
K2Nd2Ti3O10,mp-1223975,670.2755999999999,227.79419465656878,4.886071924996966,1113.0188191887546
K2PAuS4,mp-9509,868.793862,444.1260999059251,3.248325529571162,1442.666148673289
K2PdSe10,mp-505138,3896.8664,1638.3481367770028,3.949648276373425,6470.898894520901
K2RbSb,mp-976148,285.4244,155.9734974520662,3.038710899629099,473.95836676086503
K2ReH9,mp-29877,820.4251800000001,432.7508439195439,3.148111856404887,1362.348062612337
K2S,mp-1022,110.2616,101.87707708492104,1.79720207513612,183.09369434582254
K2Se,mp-8426,157.1566,112.88877285139449,2.311697321907826,260.96467387402953
K2SmP2S7,mp-555587,1029.918248,698.7536160930132,2.4475286378776673,1710.219486208227
K2Sn(AuS2)2,mp-557121,1438.199476,522.2477198864116,4.572899649961282,2388.186415461649
K2Sn2Hg3S8,mp-18115,2347.8132,896.5918122658569,4.348283674180082,3898.6355396791582
K2Sn3(SbS5)2,mp-1195395,1996.9932,982.7928967245504,3.3741444768133624,3316.0852243345466
K2Te,mp-1747,205.7966,136.9551271112786,2.4952208893631918,341.7332940734536
K2TeI6,mp-27688,1934.44684,782.65583032034,4.104261957348686,3212.2245500809195
K2Th(CuS2)2,mp-555425,565.5866599999999,209.501642391138,4.48291829008372,939.1787444778114
K2Ti(CuS2)2,mp-1211474,762.8312,398.5077399150707,3.178635900751431,1266.7110088213578
K2VAgS4,mp-8900,730.5326,421.4864010184208,2.878095043621239,1213.077921724871
K2VCuS4,mp-15147,641.8882,409.48035839028637,2.6030074719081777,1065.8804324895539
K2Zn(SnSe3)2,mp-1195072,3419.1423999999997,1404.5585792095703,4.042280338826182,5677.619529468483
K2ZnTe2,mp-12535,797.6112,356.9169323786678,3.7108482041768958,1324.464557557706
K3B6ClO10,mp-1189091,377.60790000000003,271.71698668021867,2.3076682745077526,627.0326698067862
K3Bi2I9,mp-1120792,3354.7918600000003,1307.4982713329928,4.2606273874169585,5570.762943841679
K3Cd(BO2)5,mp-1204785,1775.0196,1097.0975059894447,2.686624820209065,2947.489389780705
K3Cr2(PS4)3,mp-559251,2795.953544,2252.3668525323537,2.06129391532769,4642.7900882107215
K3NaSn3Se8,mp-628185,2256.1893385599997,966.4651986079944,3.8764877863386964,3746.4905383252926
K3Nb2AsSe11,mp-542545,2493.17852,1016.0095895348851,4.074784701946772,4140.020332467969
K3Sm(AsS4)2,mp-560964,1348.0362,817.3821372077731,2.738580489338498,2238.4667732910107
K3Ta2AsS11,mp-1211748,1813.65452,895.3075652696951,3.363809600858748,3011.6441837756706
K3Ta2AsSe11,mp-683905,2845.3445199999996,1006.9052406097265,4.692403557791735,4724.805733396224
K3Th2Cu3S7,mp-638086,1992.9280400000002,718.2321593686903,4.607611653384328,3309.3348673425676
K3Ti2P5S18,mp-1211873,1890.13542,1452.843689690634,2.160345072457682,3138.643706074399
K4Ge(PSe3)4,mp-1195433,5201.792992000001,2600.860148794277,3.3211245455033245,8637.780479582101
K4GeS4,mp-556627,2858.3456,2093.163276039361,2.2675701360599274,4746.394534644217
K4GeSe4,mp-568847,4358.9856,2361.605226743571,3.0649770747364578,7238.26587954684
K4Nb2S11,mp-15148,2779.6838399999997,1888.550859177071,2.4440822372811333,4615.773609116703
K5In3P6Se19,mp-1199321,4452.056144,1991.715734189256,3.7117812682329694,7392.813153808556
K6Cd4Sn3Se13,mp-6296,2066.8438,1092.463628086542,3.1415918903142805,3432.074874459997
K6CdTe4,mp-17698,1714.8016,895.7007698781348,3.1790695554002975,2847.495048268186
KAg2PS4,mp-12532,414.068462,188.3610971996221,3.6503124457238347,687.5768573979775
KAg2SbS3,mp-1192667,1891.1588,726.0927770122515,4.3249887176489406,3140.343068544376
KAg2SbS4,mp-9490,504.8547,213.80070957349596,3.9210859214592033,838.330952306623
KAsSe2,mp-14659,1087.7595999999999,513.9751098231823,3.5143089156410343,1806.2673108691893
KAu(IO3)4,mp-557441,935.675549,316.77895970479545,4.904763258976577,1553.7258027769024
KBaAsSe3,mp-1191826,1952.9076,794.2359513210475,4.083017594288178,3242.879363260046
KBaB5O9,mp-557420,1497.8996,836.7543353360422,2.972581913956382,2487.3208036445126
KBaSbSe3,mp-1190698,2140.2612,817.480243939545,4.3474901830056005,3553.987335328195
KBi3S5,mp-1223584,3305.4579999999996,1212.1805061007378,4.52807326498068,5488.842142005501
KBiS2,mp-1223443,312.2087,108.9948255442475,4.756507849741324,518.4347432823994
KBiSe2,mp-36539,811.9974,245.4177223692321,5.494115875825066,1348.3534046776265
KBr,mp-23251,119.00229999999999,71.51789670129197,2.7630562038282562,197.60796816525317
KCl,mp-23193,74.5513,62.02905560334427,1.9957638386024725,123.79534611581657
KCu2BiS3,mp-1194436,1885.4628,655.0900951371739,4.779319152070868,3130.884638021022
KCu2SbS3,mp-1192531,1536.5812,622.7383577244839,4.097311623659423,2551.5531116031075
KCu3S2,mp-9868,587.7326,212.8836098399082,4.584443789488176,975.9529430143912
KCu4AsS4,mp-557728,992.9278,395.1801754056408,4.172262438318803,1648.7954022131912
KF,mp-463,58.0967032,37.40551869412881,2.5790805387069127,96.47184530426522
KH3(SeO3)2,mp-1180593,1184.1540799999998,681.9253896360369,2.8835032990387264,1966.3341107137815
KI,mp-22898,166.00277,88.90698700144401,3.1004771845922225,275.65408474881445
KIO3,mp-1200675,1712.00776,704.0856635733552,4.037656090559175,2842.8557678023562
KIn(TeO3)2,mp-1195253,2020.4508,683.4688824053914,4.9088372154348106,3355.0374855432233
KInS2,mp-505412,1744.3704,911.2745327648748,3.1786197152159876,2896.595195820669
KInSe2,mp-505700,2494.6904,1032.312618527746,4.012864701954274,4142.53086827198
KLiCO3,mp-562137,424.19280000000003,325.6841102340035,2.1627973058444216,704.3887161704405
KNa2Sb,mp-15724,206.83783856000002,114.33950763074155,3.0038813223614054,343.46231137998393
KNb3(SeO6)2,mp-1202434,2670.92096,1085.1063115735167,4.08731250622745,4435.1685978807745
KNb3(TeO6)2,mp-1202170,3060.04096,1109.6312803873006,4.579284713118945,5081.317559476167
KP(HO2)2,mp-23959,272.171084,189.4447175151278,2.385660174160203,451.9507177808702
KPSe3,mp-569702,7366.849488,3731.404010154259,3.2783749332146126,12232.941372586207
KPSe6,mp-18625,2175.328248,944.170638694595,3.825810071235391,3612.217538482533
KSb,mp-1536,1286.8664,618.1228513850983,3.4570667075428854,2136.891930694902
KSb(SO4)2,mp-1195296,1411.934,732.4164460364341,3.2011454400686317,2344.571566460804
KSb5S8,mp-15559,3617.6732,1511.7222250925602,3.9738039033090344,6007.287678791834
KSbS2,mp-11703,449.9766,238.9857669027302,3.126561606741884,747.2037233558415
KSbSe2,mp-9576,1275.1132,532.3938582658552,3.977084352239109,2117.375282937339
KSiBiS4,mp-866651,1617.6968,727.5168453239022,3.692352626031423,2686.248734313807
KSm2CuS4,mp-11604,1063.2486,386.512471471751,4.567940152318723,1765.5658378077562
KSnAuS3,mp-1223460,3607.7589519999997,1344.8786806595833,4.454546546706895,5990.824682671872
KSnAuSe3,mp-1223442,4733.238952,1486.3556362407762,5.287918987697528,7859.7281913488405
KTa3(TeO6)2,mp-1200554,4116.53896,1068.085353831089,6.399932119415574,6835.673762260934
KTaO3,mp-3614,268.04438,63.7546200303669,6.981426041917768,445.0981645725756
KTeP2,mp-1188829,914.583296,468.84872989344245,3.239213835586062,1518.7012926677912
KThCuS3,mp-12365,861.75472,305.8895164931984,4.678085717980998,1430.9773783869443
KTiPO5,mp-6268,1583.488496,864.9794302299275,3.0398925306474887,2629.444509119677
KUClO3,mp-1095429,721.1568199999999,258.7896866741998,4.627344652503922,1197.509072755024
KV4Ag11O16,mp-553910,6741.6196,1955.7649278532347,5.72396127905017,11194.722717956263
KY(TeO3)2,mp-1194980,1916.8022,738.0219120414948,4.312778366214509,3182.924936044826
KZn4(BO3)3,mp-6652,954.3238,454.1286945621525,3.489521739237472,1584.691952086165
La10Se14O,mp-558535,10041.976400000001,2710.9276493222596,6.151065714440611,16675.09411807523
La2Fe(SeO)2,mp-1078132,523.5747399999999,138.37567832289784,6.283013898050536,869.4163100549374
La2HfS5,mp-1197947,2466.50376,699.7186768128346,5.8533893507766726,4095.7258513957904
La2Mn(SeO)2,mp-1196301,4181.34228,1197.5210851114016,5.798045890874985,6943.282206766315
La2MoO5,mp-1105399,907.49588,248.39888927943602,6.066582527361159,1506.9323615185456
La2O3,mp-1968,325.80914,81.78386608522705,6.615226585908185,541.0188052253487
La2S3,mp-7475,1496.02376,504.1879526114183,4.927142517339004,2484.2058980418224
La2Se3,mp-32798,4117.52752,1131.0472000690804,6.045119341034584,6837.315304760611
La2TiCoO6,mp-1211314,1922.4301400000002,504.10583542498415,6.332539966707742,3192.2703502793074
La2Zn(SeO)2,mp-1196943,4265.10992,1198.6164064689565,5.90879751626913,7082.3816455032
La2ZrS5,mp-1198687,2117.43976,708.3562214576181,4.963733410030479,3516.091442652128
La3CuGeSe7,mp-510011,2211.24482,625.8645628899561,5.866857826990432,3671.8584094268845
La3LuSe6,mp-645695,4261.773639999999,1093.9067230200994,6.469328209893499,7076.841622226084
La3Mo4O16F,mp-1198818,2150.9304263999998,765.5876331086313,4.665310472784239,3571.704002575795
La4Cd4In2S13,mp-1196490,6606.987520000001,2124.8074850959506,5.16336701863756,10971.16088949865
La4Fe(SbS5)2,mp-1203562,4702.54752,1528.2315865418607,5.109673126945966,7808.763869502944