Formula,Material ID,formula_unit_mass,volume,density,estimate_density
Ag2GeS3,mp-9900,769.1428,267.8800172376773,4.767775067226901,4.767777747224823
Ag2GeSe3,mp-1096802,1050.5128,309.1608416617966,5.642427207102897,5.6424303787485774
Ag2HgI4,mp-1229122,923.94428,266.9819945542102,5.746625628681051,5.746628858897353
Ag2Mo(I2O7)2,mp-1203404,2086.5717600000003,652.7579761325347,5.30799170509228,5.307994688749551
Ag2SnSe3,mp-1096812,4570.611199999999,1334.2855014743436,5.688196752084279,5.6881999494573225
Ag3AsS3,mp-561620,1978.8848,609.2106551768919,5.393890423250709,5.3938934551922175
Ag3AsSe3,mp-662599,7624.874400000001,1999.8841113957092,6.331067758862241,6.331071317597332
Ag3SbS3,mp-555269,2166.2384,619.9007608841648,5.802740886522704,5.802744148281763
Ag5IO6,mp-554648,1524.4837400000001,343.4676252786343,7.370315629057774,7.370319771960972
Ag7AsS6,mp-15077,4089.556,1207.0375974621934,5.62606129032458,5.626064452770869
Ag8GeS6,mp-9770,4511.9024,1207.5522476673805,6.204443918976512,6.2044474065355075
AgAsS2,mp-13740,1481.5188,552.3327139333244,4.454054201829025,4.454056705482372
AgBi(PS3)2,mp-556434,1142.3722480000001,457.3324642244417,4.147865928609672,4.147868260152565
AgBi(PSe3)2,mp-569126,1705.112248,566.7127483749094,4.996191648875751,4.996194457268146
AgBiPbS3,mp-1229121,620.2436,145.92686384687448,7.057910390573253,7.0579143578713985
AgBiS2,mp-1172905,1142.9358,271.2521356624077,6.996772732797138,6.996776665729401
AgBiSe2,mp-27916,1424.3058,297.73718917118396,7.9436345532406545,7.943639018410215
AgBr,mp-23231,187.7722,48.383937881431955,6.444350901853475,6.44435452426577
AgCl,mp-22922,143.3212,42.630581348524416,5.582622712233539,5.582625850262716
AgI,mp-580941,939.09068,268.4034289336924,5.809898805745882,5.809902071528456
AgN3,mp-2247,299.77660000000003,115.16431806585773,4.322439136641746,4.322441566313395
AgP15,mp-1195243,1144.9492599999999,684.410342322954,2.7779138594717816,2.7779154209555488
AgPd(IO3)3,mp-1193499,1477.99242,465.41801932070825,5.273246955781274,5.273249919908291
AgSbS2,mp-3922,1175.0328,387.33956674979146,5.037409127368563,5.037411958929575
AgTe,mp-568761,3767.4912,859.737489564989,7.276716900919564,7.276720991210298
Al2S3,mp-1228491,300.31615439999996,217.81180719136236,2.2895301826964203,2.28953146965649
Al2Se3,mp-11674,581.6861544,252.55345149639967,3.8245867485017886,3.824588898327314
Al2Te3,mp-29502,3494.1046175999995,1396.1935742271558,4.155653863056866,4.1556561989774075
AlAgO2,mp-9631,333.69707719999997,87.85832335519181,6.30693839740901,6.306941942580828
AlAgS2,mp-5782,397.9594772,169.43391449112184,3.900206524762423,3.900208717094326
AlAgSe2,mp-14091,585.5394772,196.76109454324234,4.941582476882666,4.941585254578883
AlAgTe2,mp-14092,780.0994771999999,245.06077562489892,5.285977139432593,5.285980110715331
AlCuS2,mp-4979,309.3150772,146.42766229382923,3.5077372781402407,3.507739249862582
AlCuSe2,mp-8016,496.89507719999995,172.56789465764706,4.781385838476759,4.781388526125386
AlCuTe2,mp-8017,691.4550772,218.71279783515297,5.249753008760489,5.249755959681401
AlN,mp-661,81.9764772,42.52728307818043,3.200889713142437,3.200891512383731
AlP,mp-1550,57.9553006,40.983457924417976,2.3481923106714797,2.34819363060592
AlSb,mp-2624,148.7415386,59.15180866014202,4.175546636123753,4.175548983226155
AlV(TeO4)2,mp-1194859,1844.4729544,659.6116814819885,4.64336742973821,4.643370039805776
As2Ir,mp-15649,1368.2408,212.13472096243026,10.710256626582213,10.710262646888351
As2O3,mp-1582,791.3656,319.14943889553336,4.117486464369091,4.117488778835485
As2Os,mp-2455,680.1464,102.41355313495791,11.02793169102378,11.027937889897176
As2Pt,mp-2513,1379.7087999999999,216.90309132645186,10.562598941863977,10.562604879170754
As2Rh,mp-15954,1010.9947999999999,209.600517428747,8.009504852964664,8.009509355160354
As2Ru,mp-766,501.8264,101.2371077110571,8.23119467448224,8.231199301291246
As2S3,mp-1189572,984.1528,526.4141283759965,3.1044458797969714,3.1044476248265482
As2Se3,mp-909,1546.8928,561.6818628364059,4.573186524611721,4.573189095230136
AsBr3,mp-23317,1258.5344,560.7410145346511,3.72693540099669,3.726937495931747
AsI3,mp-23218,911.27002,340.2057580755575,4.447894935673873,4.447897435865056
AsOsS,mp-1214793,1188.8663999999999,197.09464264356782,10.016300167723147,10.016305797951768
AsP,mp-1228799,211.790724,92.26506394301332,3.8117002917021154,3.8117024342840784
AsPPt,mp-1228792,1203.9174480000001,206.4863758833495,9.681762037872932,9.681767480055456
AsPRu,mp-1228753,413.930724,96.24478717678332,7.141666143491955,7.141670157869765
AsRuS,mp-1214786,832.2264,194.96319849644567,7.088232343916291,7.088236328258607
AsS,mp-542810,1711.7856,871.8557048070456,3.2602721376611328,3.2602739702816805
AsSeI,mp-505373,1123.14428,397.0435141879109,4.69728099748195,4.69728363785469
B2Mo(PbO2)6,mp-1196917,3105.5095999999994,693.0149119258148,7.441138601435116,7.441142784148376
B2O3,mp-306,208.86059999999998,135.3764045815366,2.561902769138968,2.5619042092014714
B2Se2O7,mp-558521,1166.1511999999998,541.0833060647883,3.5788197555860344,3.578821767264307
B3Pb10Br3O13,mp-1229254,5104.2744,1206.2595178762904,7.026553508791071,7.026557458463307
B3Pb3NO10,mp-1200969,3312.1348,921.309525454465,5.969686709287374,5.969690064887786
B4C,mp-1238815,165.76409999999998,108.28781431659964,2.541908945405635,2.5419103742294777
B6As,mp-624,279.5752,129.317419464123,3.589969113026614,3.5899711309720144
B6P,mp-28395,191.67952400000001,122.07265749137633,2.607392551372756,2.607394017005367
BAs,mp-10044,85.73259999999999,27.982045483901548,5.087631340714321,5.087634200505572
BH(PbO2)2,mp-1105235,980.4330799999999,263.1503813722347,6.186756876571033,6.1867603541880225
BP,mp-1479,41.784762,23.272944325085422,2.9813687825821957,2.9813704584293212
BPb7Br3O7,mp-1201413,7251.675199999999,1626.734620148762,7.402369027342132,7.402373188262759
BSb,mp-997618,132.571,36.84952451081099,5.974007196039766,5.974010554068752
BSbPbS4,mp-1228703,936.0619999999999,352.52513281924956,4.409238874201632,4.4092413526639875
Ba(BO2)2,mp-540659,1337.6796,602.1936302946864,3.688629574688248,3.6886316480913464
Ba(GaS2)2,mp-849286,4860.396,2083.8769584043566,3.8730105463262645,3.8730127233711276
Ba(GaSe2)2,mp-7841,1185.226,414.71996409700495,4.745645848121506,4.745648515680448
Ba(InS2)2,mp-21943,3961.7839999999997,1606.1243984397615,4.096007203315983,4.096009505708743
Ba(InSe2)2,mp-21766,5462.423999999999,1850.4140633883485,4.901912836591853,4.901915591989503
Ba(ZnAs)2,mp-7427,1671.9528,467.19634427852776,5.942561357577934,5.942564697931007
Ba12In4S19,mp-1229044,5432.861999999999,2089.941276587223,4.31661869905659,4.316621125456532
Ba2B6H4O13,mp-1199077,1103.08792,497.3501910715964,3.682959447764339,3.6829615179802215
Ba2Cd(BO2)6,mp-1190588,643.9238,268.8436429007194,3.977258358340241,3.977260593983489
Ba2DyGaSe5,mp-1105698,1803.3539999999998,545.8254191750558,5.486259273954726,5.486262357817377
Ba2DyGaTe5,mp-1105922,2289.754,660.3041375477908,5.758294933640973,5.758298170416669
Ba2DyInSe5,mp-1106127,1893.5439999999999,557.8393648875772,5.636575660019457,5.636578828375943
Ba2DyInTe5,mp-1189860,2379.944,677.4336683519982,5.833766718347979,5.833769997546864
Ba2ErGaSe5,mp-1105790,1812.8719999999998,541.5181433424789,5.5590838751295655,5.559086999927406
Ba2ErGaTe5,mp-1105724,2299.272,665.0260627385627,5.7411749624021455,5.741178189554591
Ba2ErInSe5,mp-1188122,1903.062,551.3263096431463,5.731830209966496,5.731833431866196
Ba2ErInTe5,mp-1106146,2389.462,671.5406101903811,5.908495985121887,5.908499306326587
Ba2GaAsSe5,mp-1195309,3256.3944,1099.0109011748523,4.920215178645581,4.9202179443311
Ba2GaBiS5,mp-1201906,2854.7295999999997,1012.5076926285598,4.681831120781826,4.681833752470087
Ba2GaBiSe5,mp-1203584,3792.6295999999998,1127.5073101089654,5.585604243519177,5.585607383224294
Ba2GaBiTe5,mp-1202829,4765.4295999999995,1350.754063849027,5.858344040352605,5.858347333366566
Ba2GaS4,mp-1199702,3781.096,1563.02197793212,4.016998936170856,4.017001194152546
Ba2GaSbSe5,mp-1203387,3443.7479999999996,1123.3205372351147,5.090691303125992,5.090694164637268
Ba2GaSbTe5,mp-1200935,4416.548,1337.2336942096854,5.484344677575937,5.48434776036238
Ba2GaSe4,mp-1195574,5281.736,1791.5354824379092,4.895537405451072,4.895540157265051
Ba2GdGaSe5,mp-1190156,1792.8539999999998,548.5889302385677,5.426839558019166,5.426842608481601
Ba2GdGaTe5,mp-1105573,2279.254,664.7970764895899,5.693151254048244,5.693154454206246
Ba2HgS5,mp-1194545,2542.276,910.7392948649457,4.635298641314908,4.635301246846955
Ba2In2S5,mp-22841,5316.92,2041.8946102537304,4.323902580304948,4.323905010799208
Ba2In2Se5,mp-573635,7192.719999999999,2337.8500275694064,5.108878847773123,5.108881719507737
Ba2InAgS4,mp-1197611,2502.4008,888.9663264402408,4.67434385881705,4.674346486296672
Ba2InBiS5,mp-864638,1517.5548,508.7964737048264,4.952783993877049,4.952786777869714
Ba2InSbSe5,mp-1189339,1812.0639999999999,563.9965038747204,5.335144885663771,5.335147884584025
Ba2NaCu3S5,mp-1191092,1297.21353856,480.41085870553957,4.483815716208886,4.483818236591379
Ba2NdGaS5,mp-1228486,1297.888,461.33916065863355,4.671603696062709,4.6716063220020665
Ba2NdGaSe5,mp-1205363,1766.8379999999997,562.8412374724637,5.212666251194766,5.212669181268967
Ba2NdInSe5,mp-1190093,1857.0279999999998,567.780586129152,5.431090137817126,5.4310931906688396
Ba2NdInTe5,mp-1205400,2343.428,689.4538646749269,5.644110422963621,5.644113595555447
Ba2ScTaO6,mp-1205823,596.5541920000001,143.7159044723548,6.892776027795513,6.892779902270541
Ba2SmGaSe5,mp-1189376,1779.074,557.0061959290869,5.303750480629185,5.303753461902434
Ba2SmGaTe5,mp-1189729,2265.474,670.0210417624331,5.61461185080276,5.614615006813244
Ba2SmInSe5,mp-1188304,1869.264,563.0723235037008,5.512588291455211,5.512591390117577
Ba2SmTaO6,mp-1214622,701.9582800000001,161.64624337344023,7.21098815993186,7.210992213276033
Ba2SnSe4,mp-1192595,2836.816,933.839719250766,5.044381488223018,5.04438432370324
Ba2SnSe5,mp-31307,12610.624,4080.1026864279265,5.132330094499807,5.132332979416523
Ba2TaInO6,mp-1079630,666.41628,148.17176644031986,7.468428663189091,7.468432861242275
Ba2ThCu2Se5,mp-1078405,1028.58406,272.77735254430667,6.261531608034104,6.261535127682465
Ba2V2Te2O11,mp-1204192,1615.4607999999998,580.7676978338706,4.61894795279787,4.618950549139087
Ba2V2ZnO8,mp-556688,2279.7648,832.1545982567941,4.549200978988435,4.549203536124415
Ba2YGaSe5,mp-1106265,1656.1657,545.6458567225851,5.04013328742482,5.040136120517101
Ba2YGaTe5,mp-1189739,2142.5657,658.8184170401735,5.400295370598644,5.400298406140415
Ba2YInSe5,mp-1205397,1746.3556999999998,559.4684048644975,5.1832987150220555,5.183301628588571
Ba2YInTe5,mp-1106096,2232.7556999999997,682.4808463080432,5.432501272497813,5.432504326142736
Ba2ZnSe3,mp-1190528,2307.772,730.2949265261692,5.247394475317219,5.247397424912385
Ba2ZnTe3,mp-1190380,2891.4519999999998,895.4649408087806,5.361872683549311,5.361875697493437
Ba3Bi2TeO9,mp-556407,2203.0728,511.6802199628292,7.14956003425265,7.149564053067666
Ba3Cd(SnS4)2,mp-1228659,4073.328,1673.8646506646155,4.04090036335375,4.040902634770592
Ba3Dy2(PS4)4,mp-560798,5495.664192,2587.0104450156455,3.527533143638132,3.52753512648786
Ba3Er2(PS4)4,mp-560534,5533.736192,2568.854420882231,3.577075079217028,3.5770770899146056
Ba3FeS4Br,mp-1195713,2703.96,1040.5661353344017,4.3149887950954655,4.314991220579228
Ba3Gd2(PS4)4,mp-684036,5453.664192,2591.2172795475785,3.494891192032606,3.494893156534077
Ba3GeS5,mp-1200759,2579.7839999999997,1019.5055475527674,4.201872295518717,4.201874657418946
Ba3Ho2(PS4)4,mp-559171,5515.106752,2578.7872870152287,3.551301134559748,3.5513031307696212
Ba3In2(PO4)4,mp-1200796,2043.004896,748.7657292020361,4.530775529321387,4.5307780761003
Ba3InS4Cl,mp-1205371,1381.024,523.8349524113831,4.377799330410555,4.377801791200535
Ba3MgTa2O9,mp-6325,942.1763599999999,212.27990794747208,7.3700835304400085,7.370087673212743
Ba3Nb2Se9,mp-1195033,5233.73504,1660.893532193597,5.2326180635281645,5.232621004817412
Ba3P3ClO10,mp-1194911,2801.397144,1186.9479682271985,3.919151911622161,3.919154114603391
Ba3Sb2S7,mp-1195624,3519.8239999999996,1457.6758543085587,4.009674196276463,4.009676450140868
Ba3Ta2Se9,mp-1195068,5938.06704,1661.7346515426332,5.933794719184651,5.933798054609937
Ba3Ta2ZnO9,mp-1214475,983.28036,213.10688841245232,7.66176759167164,7.661771898401916
Ba3Tb2(PS4)4,mp-554264,5467.066992,2596.2951919657785,3.496627944321598,3.496629909799309
Ba3ThSe7,mp-1095255,1196.7390599999999,356.28746512126656,5.577608409489747,5.577611544700351
Ba3V2(SeO4)4,mp-1200758,4342.777599999999,1684.4187018448101,4.2812109925266,4.281213399023636
Ba4Ga4SnSe12,mp-1195344,3788.86,1285.203638847826,4.895372108904389,4.895374860625453
Ba4LiGa5Se12,mp-1197353,3704.768,1271.5281880449352,4.838203395355748,4.838206114941901
Ba5(Ga2Se5)2,mp-1228123,1755.127,566.9750778699371,5.140361656272003,5.140364545703314
Ba5(GaSe4)2,mp-1204617,5831.044,1881.7446481894565,5.145584641561135,5.145587533928321
Ba5In4Te4S7,mp-1105201,1880.7619999999997,661.8782175607454,4.718509679146709,4.7185123314522315
Ba8Al10B12O41,mp-1019529,2154.138786,961.963716660688,3.7184683237829623,3.718470413958619
Ba8Sn4S15,mp-1195594,16435.448,6502.604306898791,4.197042014707602,4.197044373892698
BaAgSbS3,mp-1190401,1852.6008,664.0076507774867,4.632952646874406,4.632955251087753
BaAl4Se7,mp-1191234,1595.9463087999998,641.7007611769973,4.129855151017178,4.129857472436094
BaBClF4,mp-1103527,519.1692256,242.96215138054413,3.548292507234951,3.548294501753655
BaBSbS4,mp-866301,1592.632,732.6209720150708,3.609817020994163,3.609819050096203
BaBiClO2,mp-552806,827.5184,232.14067732689642,5.919370303186048,5.919373630503275
BaCaB2O5,mp-1019542,2232.192,1024.7571456742523,3.6170931188902844,3.617095152082267
BaCdSnS4,mp-12306,3973.6639999999998,1606.086617582883,4.108386333155849,4.108388642506999
BaCu2SnSe4,mp-12364,1397.9379999999999,437.9902632102209,5.299959512046295,5.299962491188616
BaCuTeF,mp-13287,694.9428063999999,188.5504196415294,6.12027107271242,6.120274512957299
BaF2,mp-1029,175.3238064,60.32690236247557,4.825907156361877,4.825909869036232
BaGa2GeS6,mp-1227983,541.803,241.64979824809052,3.7230945542831164,3.7230966470592084
BaGa2GeSe6,mp-1227970,823.173,279.9605780435599,4.8825121544706915,4.88251489896309
BaGa2SiS6,mp-1227993,497.24850000000004,232.8189849778162,3.5465344896032667,3.546536483133777
BaGa2SiSe6,mp-1227978,778.6185,276.506229328853,4.6759396356665635,4.675942264043182
BaGa4S7,mp-4309,1281.348,556.2945318144618,3.8248235246350175,3.824825674593636
BaGa4Se7,mp-1191072,1937.8779999999997,644.9100652346652,4.989722286523408,4.989725091279332
BaGe2,mp-2139,2260.8559999999998,741.2725268258605,5.064587686842674,5.064590533680935
BaHgS2,mp-28007,1608.188,460.1347096257203,5.803646072710984,5.803649334978855
BaIn2(P2O7)2,mp-1205018,1429.6992959999998,586.1095018288697,4.05055971126653,4.050561988112954
BaLa2Te5O14,mp-559703,2554.2590800000003,757.221157911418,5.601331849015704,5.601334997561409
BaNaB5O9,mp-1019554,1433.4654771199998,775.616724116721,3.0689454615498435,3.0689471866244005
BaO,mp-1342,153.3264,43.453575205003915,5.859229670745691,5.859232964257472
BaPd(IO3)4,mp-1106270,943.3576800000001,321.65937982617254,4.870003424938772,4.87000616239993
BaReH9,mp-28911,665.21092,229.13336978879272,4.820811221024321,4.820813930834216
BaS,mp-1500,169.392,67.12620118023263,4.190346371817915,4.190348727239345
BaSe,mp-1253,216.28699999999998,74.09331260733886,4.84730673334938,4.847309458052578
BaSi2,mp-1477,1547.984,713.4763881255375,3.6027652060427426,3.6027672311809114
BaSn2S5,mp-1202711,2140.2879999999996,837.0754599924151,4.245772343878512,4.245774730455249
BaSnO3,mp-3163,304.0352,71.13628093297905,7.097114448493584,7.09711843782859
BaTaNO2,mp-1227303,364.28038000000004,70.80942081071547,8.542674057494262,8.542678859387893
BaTe,mp-1000,264.927,89.09415786940792,4.937715825789215,4.937718601311962
BaTeMo2O9,mp-19049,1201.6032,389.78945260179916,5.118940604557455,5.118943481947849
BaTiO3,mp-5777,233.19219999999999,65.57310741671338,5.905237274567591,5.905240593940549
BaV2SeO8,mp-1200210,1784.6607999999999,715.8785589847835,4.139667184937439,4.139669511871763
BaZnSO,mp-548469,501.6008,161.26306331513743,5.165024817928211,5.165027721222847
Be3N2,mp-18337,440.399568,268.4366404588809,2.7242953358663557,2.724296867210796
BeO,mp-2542,50.023163999999994,27.51023288811809,3.0194371089026797,3.0194388061482638
BeS,mp-422,41.07718199999999,28.880721048437852,2.361792329991975,2.3617936575710754
BeSe,mp-1541,87.97218199999999,34.50577300165209,4.233530574088316,4.233532953783873
BeTe,mp-252,136.612182,45.40050984281411,4.996636953414623,4.996639762057327
Bi2(MoO4)3,mp-23388,3591.0944,947.8065623428338,6.291529073515254,6.2915326100253885
Bi2CO5,mp-556210,4079.748,861.8579406588494,7.860438033099017,7.860442451503263
Bi2I4O13,mp-1204764,4534.28352,1188.6516629956714,6.334366205339656,6.334369765928826
Bi2Mo2Se2O13,mp-1200193,1951.5059999999999,556.3938226291571,5.82420548163448,5.824208755458931
Bi2O3,mp-23262,1863.836,327.9206233179676,9.438175801265304,9.438181106526393
Bi2S3,mp-22856,2056.6232,517.2810621133061,6.602026285137526,6.6020299961802005
Bi2Se3,mp-541837,654.8408,151.77783048479455,7.164344933185313,7.164348960311019
Bi2Te2Se,mp-29666,752.1208,171.2386874142613,7.293480171224617,7.293484270938095
Bi2Te3,mp-34202,800.7608,181.7667606640336,7.315389164356592,7.31539327638526
Bi4Pb7Se13,mp-1190436,3312.8016,730.245597533265,7.533131997340656,7.533136231764013
Bi5IO7,mp-554445,5135.20908,1012.1835905508891,8.424573735539456,8.424578471048113
Bi7O5F11,mp-1190898,1751.8422352000002,337.5345547163007,8.618384190366806,8.618389034817604
BiBPbO4,mp-556601,1963.956,430.26429607165056,7.57958699538571,7.579591255921728
BiBr3,mp-2913080,1794.7696,691.496424150713,4.309906649201264,4.309909071828318
BiBrO,mp-23072,609.7676,129.50609729692894,7.81849613632773,7.818500531156159
BiClO,mp-22939,520.8656,113.58578538575841,7.614664760301017,7.61466904055448
BiI3,mp-22849,1179.38762,367.81189633263233,5.324512983950062,5.3245159768940535
BiIO,mp-22987,703.7685399999999,154.0010489653947,7.58848827566523,7.588492541204717
BiP3(PbO4)3,mp-1227709,2230.988972,590.0824587631331,6.278180769726738,6.278184298733703
BiPO4,mp-1190564,1215.807048,293.9607729196479,6.867906491739534,6.8679103522352305
BiPbBrO2,mp-1227444,528.0831999999999,106.06848147333677,8.267326653823874,8.267331300942907
BiPbClO2,mp-23084,967.2643999999999,204.95523902001557,7.836737092505119,7.836741497586909
BiSBr,mp-23324,1283.7975999999999,343.1261298289098,6.212864259187372,6.212867751479494
BiSCl,mp-23318,1105.9936,325.1120564496465,5.648961777257308,5.648964952576113
BiSI,mp-23514,1471.7994800000001,389.3784591920204,6.27661976939594,6.276623297525457
BiSbTe3,mp-1227340,713.5404,175.60495542387753,6.74731363324774,6.747317425957393
BiSeBr,mp-569707,1471.3776,393.0647892813887,6.215972666966726,6.215976161006105
BiSeI,mp-23020,1659.37948,435.5874447609272,6.325858300086527,6.325861855893347
BiTeI,mp-22965,463.48487,120.86064635924215,6.367951492873749,6.367955072341431
BiTeNO6,mp-1195032,1786.334,499.86526314823703,5.934153884416214,5.9341572200433905
CBr4,mp-680422,5306.0271999999995,2884.9841982496796,3.0540428815477614,3.05404459824548
CI4,mp-27962,519.62858,219.79398968328906,3.925783222986315,3.925785429695049
Ca(BiO2)2,mp-558751,4176.291200000001,985.1659924960493,7.039315956824002,7.039319913670092
Ca(GdS2)2,mp-36358,965.6759999999999,300.5017566265973,5.336217470670494,5.336220470193654
Ca(LaS2)2,mp-35421,892.2978800000001,329.4791705502156,4.497083947097454,4.497086474938106
Ca(NdS2)2,mp-35876,913.644,315.7603437017953,4.804724802293355,4.804727503060969
Ca(PrS2)2,mp-34185,900.3065999999999,321.28573521660104,4.653161087932957,4.653163703505602
Ca(SmS2)2,mp-36100,938.116,307.2174140991553,5.070605361256469,5.070608211477304
Ca10Ge16(B2O17)3,mp-1019569,4887.7108,1951.613222310036,4.158731164997908,4.158733502648222
Ca2Bi2O5,mp-28848,3468.6828,928.6532929159865,6.202404431213878,6.202407917626462