Formula,Material ID,a,b,c,avg_lattice,volume,density
Zn(InS2)2,mp-674328,3.88677781,6.718912085210039,12.734511789868362,7.780067228359466,327.5503422251356,4.291947825864141
Zn(InSe2)2,mp-22607,5.743294871060634,5.743294524260657,7.092501941207306,6.193030445509533,191.800785952383,5.288812570099574
Zn(InTe2)2,mp-20832,6.209305156310723,6.209305631110053,7.636162747239839,6.684924511553537,240.88146830313525,5.552410892873276
Zn2InCuSe4,mp-1215816,7.103548946771043,7.103548946771043,7.103548946771043,7.103548946771043,195.32628842886953,5.313536937770767
Zn2InCuTe4,mp-1215701,6.246149,6.246149,7.625649184471182,6.705982394823727,242.52803889040558,5.611507582829014
Zn2MoSeO7,mp-1191333,8.490058,5.250002,7.268806244081898,7.002955414693965,320.449524962429,4.3291066425469875
Zn2TeMoO7,mp-1192126,8.576179,5.248012,7.357661172421913,7.060617390807304,326.5852634658844,4.742398328320518
Zn3(BO3)2,mp-557683,6.450852,8.41302608767642,10.128430164676903,8.330769417451107,523.6015580342996,3.9812910376295285
Zn3(PS4)2,mp-30311,7.905616,7.905616,9.201905,8.337712333333334,575.1076920690618,2.9722098182768106
Zn3As2,mp-680580,11.917861,11.917861,23.871693,15.902471666666665,3390.625722112223,5.42354724097907
Zn3P2,mp-2071,8.03636072,8.03635766,11.32002924,9.130915873333333,731.0822298364071,4.691224769052758
Zn6S5Cl2,mp-1215990,8.51963,7.739554628026667,10.746778739297323,9.001987789107996,650.5483679818526,3.1839394539263863
ZnAs,mp-7372,5.68024686,7.24500094,7.5708482,6.832032000000001,311.5660976784548,5.983306791739732
ZnAs2,mp-7262,7.69436264,8.023873164826535,9.26330242981435,8.327179411546963,558.3442182356343,5.121352392989239
ZnB12(H5O12)2,mp-1195627,8.7016,8.78193692149545,11.719220390665924,9.734252437387125,873.0145641316886,2.241427855784395
ZnCu2GeS4,mp-6408,5.268590719663201,5.268590503636972,6.47493680851816,5.670706010606111,147.001823583286,4.443875003832139
ZnCu2SiS4,mp-1189702,6.099896594061658,6.35676319,7.357789610033569,6.604816464698409,285.3026892857826,4.060762574280743
ZnCu2SiSe4,mp-1232332,6.829818022956176,6.829818022956176,6.829818022956176,6.829818022956176,175.4085450311627,5.078185669069057
ZnCu2SiTe4,mp-1078498,7.2953860517481735,7.2953860517481735,7.2953860517481735,7.2953860517481735,212.43916843784982,5.713784559283442
ZnGeN2,mp-2979,5.19331949,5.45279706,6.43529302,5.69380319,182.23538225731187,6.0526797656450535
ZnGeP2,mp-4524,5.442477519545148,5.442476870991153,6.602348364178498,5.829100918238265,158.9073890850488,4.179818738428334
ZnHg3(SCl2)2,mp-1105779,7.428434486296557,7.428434486296557,12.146834,9.001234324197705,581.1159843129469,4.989886939981584
ZnI2,mp-27161,12.983606192199755,12.982864755485826,14.694303140899757,13.553591362861779,1937.1075313513943,4.378271017384577
ZnO,mp-2133,3.23735118,3.2373508669087494,5.2220613,3.89892111563625,47.397148259900405,5.70421780686615
ZnS,mp-554820,3.808787280964809,3.808787280964809,87.11078676,31.576120440643205,1094.3999128517012,4.141139565305906
ZnSb,mp-753,6.22274292,7.73399725,8.14016788,7.365636016666667,391.75922728067167,6.346784757848934
ZnSe,mp-1190,4.005679011332485,4.005678358128986,4.00567877,4.005678713153824,45.44784771695639,5.274845268778988
ZnSi(AgS2)2,mp-1189914,6.56602564,6.427621728136635,10.136432613084665,7.7100266604071,332.8974915414343,4.364531119583839
ZnSiAs2,mp-3595,5.606963065885797,5.6069626944527915,6.755197306059274,5.989707688799288,171.94529125925024,4.700003754302898
ZnSiP2,mp-4763,5.373406715982899,5.373406229801289,6.46451592271959,5.737109622834592,151.00927439980956,3.418565574455873
ZnSnO3,mp-13334,5.659121978145461,5.659121978145461,5.659121759519228,5.659121905270051,117.57007878380284,6.556764826849906
ZnSnP2,mp-4175,5.647501840187751,5.647500975858299,6.928730227174504,6.074577681073518,180.59078792277623,4.525181829974542
ZnTe,mp-2176,4.322812724745816,4.32281327490844,10.57750131,6.407709103218086,171.17748428055455,5.616959252306423
ZrHg4(PCl3)2,mp-1200713,13.316852,13.617712,16.530004,14.488189333333333,2997.634489201996,5.177212848669309
ZrO2,mp-2858,5.1539878367877705,5.22810872,5.329696159145639,5.23726423864447,141.66836532722778,5.777331384412114
ZrS2,mp-1186,3.69138227,3.6913828296375653,6.04107701,4.474614036545855,71.28910063255313,3.6186651797200184
ZrS3,mp-9921,3.65162466,5.1784842734466725,9.197888306788931,6.009332413411868,172.4735477620155,3.608861478892194
ZrSe2,mp-2076,3.81115295,3.8111520703442556,6.39990689,4.674070636781418,80.50391312521093,5.139046403440359
ZrSe3,mp-1683,3.77994874,5.48036737923749,9.711671023608181,6.32399571428189,199.4116018231838,5.464371229421456