Formula,Material ID,a,b,c,avg_lattice,volume,density
NbAg2(PS4)2,mp-554336,6.897868,12.514771,26.826002,15.412880333333334,2315.761018189601,3.5974045704370456
NbCu3Se4,mp-4043,5.66526997,5.66526997,5.66526997,5.66526997,181.82844767762958,5.4738474183337145
NbCuO3,mp-17272,6.4505865841549905,6.4505865841549905,6.75406624096087,6.55174646975695,279.1947379777856,4.863962376053679
Nd10Se14O,mp-1202414,15.248883391945656,15.248883391945656,15.248883391945656,15.248883391945656,2586.3788160257272,6.584323485160012
Nd2HfS5,mp-1196123,7.36801201,7.99601231,11.57266403,8.978896116666666,681.8002000189014,6.11120088207798
Nd2O3,mp-1045,9.637342803806343,9.63734243324918,9.63734282,9.637342685685175,689.0489404160857,6.487107728262267
Nd2S3,mp-438,4.05422156,7.51249909,15.66627676,9.077665803333334,477.1530517042118,5.354881460522223
Nd2Se3,mp-32688,23.219591530177855,8.941125524047628,8.941127341160147,13.700614798461878,1070.8416557522758,6.517396416166739
Nd2ZrS5,mp-1196300,7.39137457,8.00986552,11.66135565,9.020865246666666,690.3979240062843,5.195530650205344
Nd4(GeS4)3,mp-560086,11.52806242516006,11.52806242516006,11.528063352849209,11.528062734389778,870.9669368160305,4.498184068338872
NdCuSO,mp-542314,3.942131,3.942131,8.459517,5.447926333333332,131.4642510953574,6.463398253799101
NdCuTeO,mp-974307,4.122932,4.122932,9.407572,5.884478666666666,159.91525495925615,7.29752149486508
NdF3,mp-254,7.0027232,7.0027241072291435,7.20767547,7.071040925743048,306.0975333537723,6.550113185162411
NdLuSe3,mp-13327,6.828910913340025,6.828910913340025,9.91660609,7.858142638893351,259.74459154094785,7.110119240815493
NdMoO4F,mp-1192562,6.61203,7.027735,10.13012838050397,7.923297793501324,423.68158397213637,5.066537891481002
Ni2Te3O8,mp-17360,6.714708729986668,6.714988046709649,11.434021751004266,8.287906175900195,363.082003916808,5.745923734484667
NiO,mp-19009,2.9601883503857622,2.9601871416285945,2.96018743,2.960187640671452,18.34183362776642,6.762154477618838
NiS2,mp-1180046,5.3000548989920535,5.278050319628209,5.201471419566741,5.259858879395668,103.50869887667356,3.9407906041914456
P2Ir,mp-10155,5.772335097540224,5.80673151,5.8724596394772,5.817175415672474,183.4509259235919,9.202463695856821
P2Os,mp-2319,2.94564109,5.09488199,5.90694818,4.6491570866666665,88.64966921430491,9.447313995231188
P2Pd,mp-28266,4.521671755873228,4.521672646481258,5.808452284890729,4.950598895748405,100.96585044697865,5.538126998604
P2Pd3S8,mp-3006,7.05164123,7.051641445736374,7.32875312,7.144011931912125,315.60304137067794,3.355390565467712
P2Pt,mp-730,5.72261378,5.72261378,5.72261378,5.72261378,187.40592135098834,9.109869824238285
P2Rh,mp-15953,5.761410990236888,5.80324068,5.853886837569235,5.806179502602041,181.00969000940165,6.04928689916941
P2Ru,mp-1413,2.89752343,5.11012098,5.90022794,4.635957449999999,87.36287712925868,6.197070793396386
P2Se5,mp-28860,5.971003995613536,7.0815817230025155,21.1407235,11.397769739538683,815.327802045095,3.720943185169942
P4Os,mp-1103842,4.730114262019183,7.170065156578731,7.557308197614641,6.485829205404184,234.23808984740512,6.680598971005209
P4Ru,mp-27173,4.726876906944374,7.16434275316844,7.5392179556837355,6.47681253859885,233.46729289993837,4.8002002274080775
PH6NO4,mp-1220029,7.523290633790044,6.601159946590675,6.563021281563698,6.8958239539814725,219.37955042936727,1.7413170139172724
POsS,mp-1102534,5.77709541,5.771592313521342,5.840232139028514,5.796306620849953,182.2419066378431,9.230866410680678
POsSe,mp-1101841,5.985078,5.99182,6.085596773291014,6.0208315910970045,202.1571776454086,9.862299404533555
PPdS,mp-7280,5.683744351800192,5.708055169765683,13.83441339963693,8.408737640400934,448.8316178972408,5.015562776918197
PPdSe,mp-3123,5.84228848,5.87826686,14.19776988,8.63944174,487.5873488066263,5.894556122281345
PRuS,mp-1095584,5.77208556,5.7439631374303035,5.81108362141015,5.775710772946819,180.3430991231211,6.0442348345432
PSe,mp-28885,7.36098145,11.61788647409519,11.974353220698491,10.317740381597893,921.5979334272436,3.169265900767657
Pb2O3,mp-20078,5.68097231,7.600671631252699,7.850621539058205,7.044088493436969,312.20383580650474,9.837550822423589
Pb2SeN2O9,mp-1192446,5.48916173,7.2929014,10.31421434,7.698759156666667,412.8977544895329,5.351782835590682
Pb3O4,mp-22633,6.64596849,8.89399404,8.89399404,8.14465219,525.7169093310843,8.662164587521179
Pb3Se2(BrO3)2,mp-1194412,7.403362671079474,7.403362671079474,13.65386837570657,9.48686457262184,533.3402618314843,6.446903546717075
PbBr2,mp-2456335,4.50177832,7.78386196,14.51122872,8.932289666666668,508.49117281157277,4.794035014492292
PbCl2,mp-23291,4.54802648,7.67151188,9.17110966,7.130216006666667,319.9822095088894,5.772894416406985
PbI2,mp-567503,4.61784276,4.61784318362322,14.55122959,7.928971844541074,268.7253638919844,5.697440270130672
PbN6,mp-667338,6.730475,11.543127,16.492396,11.588665999999998,1281.3062466794674,4.529275318381045
PbS,mp-21276,4.23050716,5.9824948,8.43319393,6.21539863,213.4355962686329,7.445972212994699
PbSe,mp-2201,4.371084483635594,4.371083953645105,4.37108462,4.371084352426901,59.05444982815671,8.046470006595401
PbSeO4,mp-22342,7.43366695,6.9776532645457285,8.785041370342444,7.732120528296058,362.5049529075341,6.415916467935371
Pd(IO3)2,mp-1198404,5.945789,6.234779,15.374452,9.185006666666666,569.9413963499699,5.3168975273217685
PdS2,mp-13682,5.48297086,5.56536307,7.88021863,6.30951752,240.46269291447265,4.711000020437429
PdSe2,mp-2418,5.75505548,5.90093471,8.12980079,6.5952636600000005,276.089714769685,6.3594820579421425
Pr10Se14O,mp-560835,15.364236697313537,15.364236697313537,15.364236697313537,15.364236697313537,2642.9093320437887,6.35968924042202
Pr2S3,mp-15179,4.09351827,7.56486891,15.78155208,9.146646420000001,488.706204242634,5.137654200236373
Pr2Se3,mp-32689,23.386288553921304,9.00659710984679,9.006549185455274,13.799811616407789,1094.1215182398769,6.297756108096
Pr2Te3,mp-32581,24.997645607796706,9.610982804049682,9.610854735778105,14.739827715874831,1335.6738985908535,6.610114466259504
Pr2Te4O11,mp-2980,6.879771548578343,6.879771548578343,16.422912021353948,10.060818372836877,529.6468688053251,6.071020016028592
PrBN2,mp-9028,7.427588761860676,7.427588761860676,7.427588784881559,7.427588769534303,302.39849290010125,5.921697975730973
PrCuSO,mp-6166,3.968821,3.968821,8.495171,5.477604333333333,133.81202691806052,6.267240646514073
PrF3,mp-2651,7.06402107,7.064022617173434,7.26753433,7.1318593390578116,314.0666198268443,6.278134809847106
PrLuSe3,mp-13326,4.0329571,6.8518536969970505,9.9481706,6.94432713233235,262.7259017084971,6.987287394207647
PrMoO4F,mp-1192358,6.651184,7.081619,10.177872198858513,7.970225066286171,431.11984945672225,4.9277515940121654
PrTl2InSe4,mp-1219751,6.79172423353643,6.79172423353643,6.79172423353643,6.7917242335364305,239.50878440888204,6.796744442549593
PrTlSe2,mp-999289,4.3494663465070476,4.34946546,8.098861246705805,5.599264351070951,126.14702468837368,6.624028139229765
PtS,mp-288,3.49446173,3.49446173,6.11629389,4.368405783333333,74.68767194538908,10.100456437172683
PtS2,mp-762,3.54874234,3.54874203868774,5.59706654,4.231516972895913,61.04357903464705,7.051273539602691
PtSe2,mp-1115,3.71730587,3.717307226048412,5.82007402,4.418229038682804,69.64917003734249,8.416136651043896
Rb2AgPS4,mp-1105212,6.724371,7.036289316177455,11.147375880011356,8.302678732062937,458.1123424363766,3.1755463320233033
Rb2BaNb2Se11,mp-571293,14.0412863,7.962673524738687,17.292341458267295,13.098767094335328,1920.5705523722631,4.712577199552886
Rb2Cd(IBr)2,mp-1103709,7.289895279716237,7.289895279716237,11.70306274,8.760951099810825,590.8158404043186,3.9177527311177758
Rb2Cd(PSe3)2,mp-541897,12.944955,6.763154,9.725491264038954,9.811200088012985,693.839135314636,3.920422764694838
Rb2Cd3(B4O7)4,mp-1200744,11.566623007342635,11.566623007342635,13.526003801268763,12.219749938651345,1146.151939853582,3.271749159755612
Rb2Cd3S4,mp-18556,6.64761019,10.62820565,14.30973411,10.52851665,1011.0137409558909,4.181207477565439
Rb2Cd3Se4,mp-16818,6.86574491,11.10268949,14.77745728,10.915297226666667,1126.4594692966655,4.8587579360266036
Rb2Cd3Te4,mp-29901,10.704550077176702,10.704550077176702,13.063967705181746,11.49102261984505,1340.779552095867,5.045938982790017
Rb2Cu2Sb2S5,mp-1195291,10.462448,6.683865,16.766074792981332,11.304129264327111,1155.3705322011933,4.0350237074357365
Rb2Cu2SnS4,mp-18006,9.490331958059317,9.490331958059317,9.490331958059317,9.490331958059317,446.4101654524343,4.054521496328551
Rb2GeB4O9,mp-1020707,10.066798,6.729355,13.468420721658681,10.088191240552893,912.3744721831534,3.136360480732156
Rb2Hg3(GeS4)2,mp-1209424,6.526447,10.163727,13.471103092893097,10.053759030964365,885.2024855259173,4.406477533966144
Rb2Mo3Se3O16,mp-1194625,13.904715,8.32269,14.059955547761666,12.095786849253889,1625.9082886384683,3.8875800334730006
Rb2NbCuS4,mp-15221,13.989865126191354,12.477263160458907,7.466833368705774,11.311320551785345,471.7836454388206,3.20749258149302
Rb2NbCuSe4,mp-15222,14.468543996831885,12.914825604950614,7.705758532870076,11.696376044884191,521.2685951855705,4.098099135014877
Rb2Sn2Hg3S8,mp-561434,6.741296,10.335595,13.818508150479378,10.298466383493126,954.2026780624414,4.408527770238263
Rb2Sn3(SbS5)2,mp-1194540,13.680448,7.054538,12.090398478987241,10.94179482632908,1016.4294314918321,3.5654995585972498
Rb2Te,mp-441,6.054395575056957,6.054395745621043,6.05439651,6.054395943559332,156.9269235634012,3.158986458882483
Rb2TeBr6,mp-570324,7.644160849877458,7.644160162488219,7.703663626650961,7.663994879672212,320.7435504196711,4.027617410689114
Rb2TeI6,mp-28070,8.10855166,8.10855166,12.27226015,9.49645449,806.8840467017882,4.362730964213464
Rb2Ti(AgS2)2,mp-1209316,6.034007,6.034007,13.533687,8.533900333333333,492.75126451057815,3.7931905748497603
Rb2Ti(CuS2)2,mp-7129,5.58552278,5.58552278,13.28211685,8.151054136666666,414.37634118325275,3.800179492196923
Rb2VAgS4,mp-8901,13.711120703560194,12.220838853823292,7.467344045637109,11.133101201006866,476.9606297629563,3.189092121661404
Rb2VCuS4,mp-15219,13.561928279756165,12.09847747971017,7.2321792812763315,10.96419501358089,429.2400461153299,3.200712305196358
Rb3Bi2Br9,mp-1195363,8.25531125,13.492629431729648,19.282976760436362,13.676972480722005,2147.5838539848037,4.30988809516592
Rb3Bi2I9,mp-29895,8.454126,15.091377,25.947473309928313,16.497658769976102,2746.4582749639526,4.393114722569822
Rb3Cd(BO2)5,mp-1200569,20.490625,8.027968,8.47821773397027,12.332270244656756,1194.4883451595015,3.2411113933876408
Rb3Na(MoO4)2,mp-1104938,6.290703219233443,6.290729706264687,8.007576005929197,6.863002977142443,274.42918123451176,3.6261032230269685
Rb3Nb2AsSe11,mp-683902,10.383017807281272,10.383017807281272,10.245099456215396,10.337045023592646,1085.4299446944678,4.239804284426313
Rb3Sb,mp-16319,6.37521196,6.375212703162063,11.26663369,8.005686117720687,396.5647708918155,3.166973696862201
Rb3Sb2Br9,mp-1194576,7.68782753,13.695780937404926,19.481518060041292,13.621708842482073,2050.9431102852063,3.9480290760955437
Rb3Sb2I9,mp-1209693,8.426432,15.030509,25.706019075580585,16.387653358526862,2676.7916230801434,4.074595547815445
Rb3Ta2AsS11,mp-1209358,9.936591565445013,9.936591565445013,9.794687597536228,9.889290242808752,950.4351455140522,3.6547831776456174
Rb3Zn(BO2)5,mp-1020643,9.54307,10.655676,13.657372284774329,11.285372761591441,1161.1878303948022,3.0652019102901966
Rb4Ge(PSe3)4,mp-1195251,7.54793332,14.60121898,24.78142984,15.64352738,2731.1372765741,3.613789180140341
Rb4Ge3B6O17,mp-1020896,6.988833747957952,6.988833747957952,20.693492763716062,11.557053419877322,855.9499325679352,3.478982393240664
Rb4Mo5(PO11)2,mp-1199088,10.441798094567549,10.441798094567549,17.4450219,12.7762060297117,1130.9420203670604,3.6281350461029493
Rb4Ti3S14,mp-542067,11.422364418534192,11.42236999798453,13.473904676485528,12.106213031001417,1084.1742392830158,2.862230239415652
Rb5Li6(BO2)11,mp-1020620,6.910871499220992,6.910871499220992,13.909187862406634,9.243643620282873,565.423934219926,2.760280593656304
Rb7Th2(P2Se7)3,mp-585963,11.826269,12.662026832645397,16.537949739705976,13.67541519078379,2393.60201377705,4.032510964587649
RbAg2SbS4,mp-17756,6.663679076644751,6.663679076644751,16.7718719,10.033076684429835,644.9712341395654,4.257535546262503
RbAg5(PS4)2,mp-1195102,12.759448,12.801018,18.026973,14.529146333333335,2944.416229244205,4.255776533341282
RbBi3Se5,mp-1209327,4.16644261,12.46480101,22.18007722,12.937106946666667,1151.8974255548164,6.384470556501388
RbBiS2,mp-30041,8.078337323219287,8.078337323219287,8.078337087889254,8.078337244775943,115.35776208989007,5.161621539321554
RbBr,mp-22867,4.887451762313654,4.887451515721733,4.88745206,4.88745177934513,82.55292826433187,3.326427543971318
RbCd(BO2)3,mp-1197285,7.475147506036318,7.711238959213623,13.105058596192121,9.430481687147354,636.6976593217289,3.4041118632611513
RbCl,mp-23295,4.6792185502376125,4.679218897781741,4.6792186,4.679218682673118,72.44443938610804,2.7716925421197955
RbF,mp-11718,3.9826258889535486,3.9826258667318792,3.98262604,3.9826259318951425,44.66769821355681,3.8835717641775656
RbGaSnSe4,mp-1209628,13.19065,7.712388,18.697588096392806,13.200208698797601,1892.6659992364148,4.139294045385822
RbGeB3O7,mp-1199892,6.98405858,9.38745139,9.46468027,8.612063413333333,620.5281988679719,3.238362699988925
RbH2(IO3)3,mp-1192404,7.627633956497192,7.727171041921293,8.335889900752589,7.896898299723691,475.98343966440365,4.271443637659398
RbH3(SeO3)2,mp-24022,6.061721,6.488114,18.277622,10.275819,718.8430975555559,3.163872037503767
RbHgSbTe3,mp-1219595,8.389175451594872,8.389175451594872,12.02788,9.602076967729914,445.47819345660906,5.894123496652014
RbI,mp-22903,5.220098968885605,5.220098650704788,5.22009843,5.220098683196798,100.58221792977244,3.506111301341046
RbInS2,mp-601861,7.905383194327792,7.905383194327792,15.715311631554231,10.508692673403273,966.4425750723994,3.6345482043226403
RbInTe3O8,mp-1192556,5.873327,7.753141681156227,11.342300435020842,8.322923038725689,477.80202529853045,4.942539870061224
RbMoPO6,mp-1198591,10.266071184075141,9.822435952089378,8.4752227964873,9.52124331088394,574.7277312273445,3.563939064404949
RbNa2Sb,mp-975275,5.563108776016978,5.563108776016978,5.563108776016978,5.563108776016978,121.74122225192204,3.4537247930583703
RbNb3(TeO6)2,mp-1201687,4.116858,15.23982,17.828331,12.395002999999997,1118.5526048576505,4.8181113709505485
RbNb4Br11,mp-1201070,7.16036203,7.3460705,17.04019673,10.515543086666668,896.3232817966103,4.950316943343634
RbPSe6,mp-17945,6.97393333,11.64254045,12.05802982,10.224834533333334,979.0433013472184,4.004124228298113
RbSbS2,mp-10621,6.578233440676881,6.565341988757724,12.19450454795238,8.446026659128995,489.07996330808464,3.6852888012734573
RbSbSe2,mp-1189259,6.801577133472903,6.754273136582534,12.740249800062097,8.765366690039178,542.575632156056,4.470102607251972
RbTa3(TeO6)2,mp-1204836,3.989799,15.215144,17.765371,12.323438000000001,1078.453354295638,6.6239927752104375
RbTbSe2,mp-10782,8.306779567072937,8.306779567072937,8.306778810109355,8.306779314751743,123.58321647862664,5.405723540926321
RbV(CuS2)2,mp-15998,9.665709654377583,9.665709654377583,7.489758,8.940392436251722,377.0057409669853,3.451061205399365
RbY(TeO3)2,mp-1194706,6.144592,8.813867,14.004415,9.654291333333333,758.4457390792378,4.602726630487341
ReS2,mp-572758,6.399503979083078,6.503301233028446,13.267236401792928,8.723347204634818,467.5299135649283,7.113031380529443
ReSe2,mp-541582,6.644182681866914,6.765991241060319,7.0669011946764675,6.8256917058679,265.05201794220613,8.62376120443585
Rh2S3,mp-974381,5.98491181,5.9849105046151685,6.294944538986973,6.08825561786738,163.22288044051223,6.1448831192557245
RuS2,mp-2030,5.63060972,5.63060972,5.63060972,5.63060972,178.51153198083136,6.146853388312788
RuSe2,mp-1922,5.97163235,5.97163235,5.97163235,5.97163235,212.95075599608094,8.078168322945961
Sb2O3,mp-2136,4.96361487,5.40283676,12.37936514,7.581938923333333,331.9848734985325,5.832523086050206
Sb2Os,mp-2695,3.24311781,5.96539362,6.72350117,5.310670866666666,130.07604254222485,11.074427020701247
Sb2S3,mp-2809,3.84473291,11.36714114,11.80011845,9.003997499999999,515.7079119701428,4.375422722175947
Sb2Se3,mp-2160,4.00155687,11.71362971,12.3620732,9.359086593333332,579.4444338187419,5.506812533083567
Sb2Te3,mp-1201,10.880028548112099,10.880028555334485,10.880029441173736,10.880028848206772,169.92445719025892,6.120536415946441
Sb3IO4,mp-1209215,4.59489346,15.81208074,19.05310834,13.153360846666667,1384.300278465236,5.33735097648844
Sb5IO7,mp-556869,13.12612,6.949383,13.590367738133247,11.221956912711084,1077.5084613301387,5.225534520126911
Sb8I2O11,mp-1219562,4.231408857400216,10.143637630504799,10.820535652331635,8.398527380078884,435.9036007018905,5.3479747970104645
SbI3,mp-23281,8.356622236806462,8.356622443105396,8.356622563975316,8.356622414629058,351.97797437316626,4.741073521538678
SbOsS,mp-1102833,6.19454,6.284032779647318,6.287270606105403,6.25528112858424,227.567548364984,10.042148323235562
SbOsSe,mp-1101771,6.375814,6.454220896630747,6.498282488565883,6.44277246173221,246.30750611538141,10.542719681196585
SbPb2S2I3,mp-578882,16.748202,7.804178,8.758462334580196,11.103614111526731,1096.7478719307567,5.941181299600147
SbPbBrO2,mp-1206466,7.073626903667735,7.073626903667735,5.569879,6.572377602445157,207.1984593948095,7.066364340245682
SbPbIO2,mp-1219447,7.440388511681967,7.440388511681967,7.440388511681967,7.440388511681967,109.40494638709656,7.4047476439307545
SbRuSe,mp-1102395,6.368995,6.433422771562661,6.472530280079422,6.424982683880695,244.07644139394293,8.212739944046893
SbSBr,mp-22971,3.96725024,8.46953397,10.06229994,7.499694716666667,338.10093212572406,4.591719201212127
SbSI,mp-23041,4.10202463,8.84451577,10.50935264,7.818631013333333,381.2837437757244,4.890449799560453
SbSeBr,mp-1209072,4.04084569,8.49177124,10.71345544,7.74869079,367.6208373305021,5.070301437854808
SbSeI,mp-22996,4.17240215,9.03600667,10.71373639,7.974048403333334,403.92772149890897,5.387431489874499
SbTeI,mp-28051,7.484585044963734,7.484585044963734,9.619704420924238,8.196291503617235,226.99467602106913,5.5049912426188445
SbTeOs,mp-1103213,6.56268615,6.660948283529614,6.733009779656876,6.65221473772883,269.76474462118375,10.823599196577488
SbTeRh,mp-1219458,6.44668078,6.44668078,6.44668078,6.44668078,267.9220745965157,8.73314564238582
SbTeRu,mp-1102857,6.56301599,6.646264259910193,6.708029330911532,6.639103193607242,267.42505422475244,8.70378741132592
Sc(CuSe)3,mp-1219527,7.502039099548135,7.502039099548135,7.502039459119167,7.5020392194051455,257.0687782050894,6.103902576604674
Sc2O3,mp-216,8.54160167356635,8.541602070953498,8.54160167,8.54160180483995,479.72910891946253,3.818904932303188
Sc2S3,mp-401,6.400310465864451,6.4003108861991755,11.678897106900614,8.159839486321413,428.6277174366303,2.883972633977312
ScAg(PSe3)2,mp-13383,6.535032236819648,6.535032236819648,15.168923,9.412995824546432,561.0232200306174,4.075887198057913
ScAgO2,mp-11022,3.21142308,3.2114227772551334,12.40930025,6.277382035751711,110.83397731096576,5.53811517415263
ScCuO2,mp-3642,3.22138292,3.2213823633947194,11.38010347,5.940956251131573,102.27311664510334,4.5624290881974545
ScNiSb,mp-3432,4.301190247643293,4.301189325752543,4.30118992,4.301189831131945,56.26662650851607,6.6522731462277545
ScSbPd,mp-569779,4.490139293110916,4.490138800654892,4.49013962,4.4901392379219365,64.0124422932965,7.085385842478886
ScTlS2,mp-13312,3.79249698,3.792497804253862,14.94939822,7.511464334751288,186.21082110984122,5.59073709680138
ScTlSe2,mp-13313,8.026628533609722,8.026628695522975,8.02662809889958,8.026628442677426,104.88475063809506,6.4477421898270135
ScTlTe2,mp-13314,8.441830029208415,8.441830146013093,8.44183011343753,8.44183009621968,127.70384451989109,6.5605469851542555
Si(Bi3O5)4,mp-23492,8.752093150938395,8.75209280452828,8.752092498532775,8.752092817999817,516.0762152775502,9.18901302686875
Si3N4,mp-988,7.604544200000063,7.6045446714657094,2.90519908,6.038095983821925,145.49663109055865,3.2020796398588742