Formula,Material ID,a,b,c,avg_lattice,volume,density
Ag2GeS3,mp-9900,6.44584315,6.877781965287755,6.877783162950538,6.7338027594127645,267.8800172376773,4.767775067226901
Ag2GeSe3,mp-1096802,7.219082353701193,7.219082353701193,6.79972824,7.079297649134129,309.1608416617966,5.642427207102897
Ag2HgI4,mp-1229122,7.8496100836218305,7.8496100836218305,7.8496100836218305,7.8496100836218305,266.9819945542102,5.746625628681051
Ag2Mo(I2O7)2,mp-1203404,7.0246999361773454,7.0246999361773454,17.76058118750918,10.603327019954625,652.7579761325347,5.30799170509228
Ag2SnSe3,mp-1096812,7.4025962440352995,7.4025962440352995,28.12003028226073,14.308407590110443,1334.2855014743436,5.688196752084279
Ag3AsS3,mp-561620,6.798717428846717,6.798717428846717,16.978420394995585,10.191951750896338,609.2106551768919,5.393890423250709
Ag3AsSe3,mp-662599,8.237619,11.502629,21.106004,13.615417333333333,1999.8841113957092,6.331067758862241
Ag3SbS3,mp-555269,15.96725416,6.270943931663298,6.903645611507789,9.71394790105703,619.9007608841648,5.802740886522704
Ag5IO6,mp-554648,11.482982645955797,11.482982645955797,11.482982312502008,11.482982534804535,343.4676252786343,7.370315629057774
Ag7AsS6,mp-15077,10.647319,10.647319,10.647319,10.647319,1207.0375974621934,5.62606129032458
Ag8GeS6,mp-9770,7.49334839,10.62364144,15.16898778,11.095325870000002,1207.5522476673805,6.204443918976512
AgAsS2,mp-13740,8.706295448291712,8.706295448291712,8.706295695251569,8.706295530611664,552.3327139333244,4.454054201829025
AgBi(PS3)2,mp-556434,6.4432323606361575,7.309027292053072,9.78534094595244,7.845866866213889,457.3324642244417,4.147865928609672
AgBi(PSe3)2,mp-569126,14.861635384210784,14.861635384210784,14.861635414442718,14.861635394288095,566.7127483749094,4.996191648875751
AgBiPbS3,mp-1229121,7.092525281926389,7.092525281926389,7.092525281926389,7.092525281926389,145.92686384687448,7.057910390573253
AgBiS2,mp-1172905,4.048440965014681,4.048440965014681,19.110277,9.069052976676454,271.2521356624077,6.996772732797138
AgBiSe2,mp-27916,4.17172187,4.171721263929564,19.75476391,9.36606901464319,297.73718917118396,7.9436345532406545
AgBr,mp-23231,4.0901443391195125,4.090145303000964,4.09014583,4.090145157373492,48.383937881431955,6.444350901853475
AgCl,mp-22922,3.921137907804589,3.9211372723398488,3.92113719,3.921137456714813,42.630581348524416,5.582622712233539
AgI,mp-580941,4.50627558,4.5062760801161925,15.26236861,8.09164009003873,268.4034289336924,5.809898805745882
AgN3,mp-2247,5.350296863202733,5.350296863202733,5.350296863202733,5.350296863202733,115.16431806585773,4.322439136641746
AgP15,mp-1195243,7.141303399805232,9.077815992131823,11.472064858883266,9.23039475027344,684.410342322954,2.7779138594717816
AgPd(IO3)3,mp-1193499,7.473371496452187,8.196688592493556,8.787439175831375,8.152499754925707,465.41801932070825,5.273246955781274
AgSbS2,mp-3922,4.62089793,6.801795097316418,13.246779909540734,8.223157645619052,387.33956674979146,5.037409127368563
AgTe,mp-568761,4.78356307,8.96352613,20.0509739,11.266021033333333,859.737489564989,7.276716900919564
Al2S3,mp-1228491,6.488002119483309,6.488002119483309,7.023954188972549,6.666652809313057,217.81180719136236,2.2895301826964203
Al2Se3,mp-11674,6.77603462,6.796515763144811,7.380781423650373,6.984443935598395,252.55345149639967,3.8245867485017886
Al2Te3,mp-29502,7.247973122448974,13.03847237,14.77426398758063,11.686903160009868,1396.1935742271558,4.155653863056866
AlAgO2,mp-9631,2.87786429,2.8778650971394164,12.24930776,6.001679049046473,87.85832335519181,6.30693839740901
AlAgS2,mp-5782,5.70249387055302,5.702493725607133,6.588432650633701,5.997806748931285,169.43391449112184,3.900206524762423
AlAgSe2,mp-14091,5.9752059364763,5.975205728942019,6.944284353004935,6.298232006141085,196.76109454324234,4.941582476882666
AlAgTe2,mp-14092,6.351812684878612,6.351812768772656,7.554261123915128,6.752628859188799,245.06077562489892,5.285977139432593
AlCuS2,mp-4979,5.286815988364829,5.28681607055462,6.43588437643278,5.669838811784076,146.42766229382923,3.5077372781402407
AlCuSe2,mp-8016,5.586895731559774,5.586895458914948,6.795045292544539,5.98961216100642,172.56789465764706,4.781385838476759
AlCuTe2,mp-8017,6.034586344720993,6.034586700333153,7.3674374798383475,6.478870174964165,218.71279783515297,5.249753008760489
AlN,mp-661,3.128588,3.128588271953502,5.016955,3.7580437573178345,42.52728307818043,3.200889713142437
AlP,mp-1550,3.8699723319258843,3.869971937690879,3.86997254,3.8699722698722545,40.983457924417976,2.3481923106714797
AlSb,mp-2624,4.373485081071866,4.3734846273844985,4.37348589,4.373485199485455,59.15180866014202,4.175546636123753
AlV(TeO4)2,mp-1194859,8.104843,4.919119,17.930125880862104,10.318029293620702,659.6116814819885,4.64336742973821
As2Ir,mp-15649,6.093720307859484,6.09813098,6.194007179814263,6.128619489224582,212.13472096243026,10.710256626582213
As2O3,mp-1582,4.559018056995193,5.389057353291435,13.03362376,7.660566390095542,319.14943889553336,4.117486464369091
As2Os,mp-2455,3.04327858,5.41927134,6.20976018,4.890770033333333,102.41355313495791,11.02793169102378
As2Pt,mp-2513,6.00835033,6.00835033,6.00835033,6.00835033,216.90309132645186,10.562598941863977
As2Rh,mp-15954,6.088387121171141,6.10348454,6.178897474753292,6.1235897119748115,209.600517428747,8.009504852964664
As2Ru,mp-766,3.00114582,5.43556299,6.20594752,4.880885443333334,101.2371077110571,8.23119467448224
As2S3,mp-1189572,5.814320813369768,8.95694571155739,10.597208941735197,8.456158488887452,526.4141283759965,3.1044458797969714
As2Se3,mp-909,4.490683968080547,10.37672095,12.054021476257535,8.973808798112694,561.6818628364059,4.573186524611721
AsBr3,mp-23317,4.28886178,10.49467342,12.45808657,9.08054059,560.7410145346511,3.72693540099669
AsI3,mp-23218,8.37099027742352,8.370990281684723,8.370991097066934,8.370990552058393,340.2057580755575,4.447894935673873
AsOsS,mp-1214793,5.91743338,5.950871064153086,5.998408170510619,5.955570871554568,197.09464264356782,10.016300167723147
AsP,mp-1228799,3.513324,4.651367065215989,5.917247017558334,4.693979360924774,92.26506394301332,3.8117002917021154
AsPPt,mp-1228792,5.910585,5.910585,5.910585,5.910585,206.4863758833495,9.681762037872932
AsPRu,mp-1228753,2.961556,5.327357705740811,6.103658435006746,4.797524046915853,96.24478717678332,7.141666143491955
AsRuS,mp-1214786,5.91002512,5.923870661382967,5.9697335459069425,5.934543109096637,194.96319849644567,7.088232343916291
AsS,mp-542810,6.779854212822304,9.548039282499891,14.07691232,10.134935271774063,871.8557048070456,3.2602721376611328
AsSeI,mp-505373,4.24538604,9.304277320452519,13.709762535018886,9.086475298490468,397.0435141879109,4.69728099748195
B2Mo(PbO2)6,mp-1196917,9.774277636981452,9.774277636981452,11.83436645,10.460973907987634,693.0149119258148,7.441138601435116
B2O3,mp-306,4.337416600000113,4.337417873494954,8.30902354,5.661286004498355,135.3764045815366,2.561902769138968
B2Se2O7,mp-558521,7.54156797,7.91362621,9.06623459,8.17380959,541.0833060647883,3.5788197555860344
B3Pb10Br3O13,mp-1229254,9.634241627114248,9.634241627114248,17.157705295402558,12.142062849877016,1206.2595178762904,7.026553508791071
B3Pb3NO10,mp-1200969,8.00912257,10.36721178,11.09580079,9.824045046666667,921.309525454465,5.969686709287374
B4C,mp-1238815,5.04646593183355,5.194792524947125,5.1947790749952905,5.145345843925322,108.28781431659964,2.541908945405635
B6As,mp-624,5.317361628772601,5.3173613359866145,5.317361764137166,5.3173615762987945,129.317419464123,3.589969113026614
B6P,mp-28395,5.240355095587169,5.240355331224468,5.240354921965879,5.240355116259171,122.07265749137633,2.607392551372756
BAs,mp-10044,3.407727183660394,3.407727183660394,3.407727183660394,3.4077271836603935,27.982045483901548,5.087631340714321
BH(PbO2)2,mp-1105235,7.211025633672716,7.211025633672716,7.631103937253442,7.351051734866291,263.1503813722347,6.186756876571033
BP,mp-1479,3.204709645986926,3.2047104017639794,3.20471056,3.204710202583635,23.272944325085422,2.9813687825821957
BPb7Br3O7,mp-1201413,9.48051183104905,9.48051183104905,21.74053074041616,13.567184800838087,1626.734620148762,7.402369027342132
BSb,mp-997618,3.735215204085569,3.735215204085569,3.735215204085569,3.7352152040855686,36.84952451081099,5.974007196039766
BSbPbS4,mp-1228703,6.179721777710466,6.265925,9.572145244183144,7.33926400729787,352.52513281924956,4.409238874201632
Ba(BO2)2,mp-540659,13.783623465519248,13.783623465519248,13.78362302807252,13.783623319703672,602.1936302946864,3.688629574688248
Ba(GaS2)2,mp-849286,12.77293467,12.77293467,12.77293467,12.77293467,2083.8769584043566,3.8730105463262645
Ba(GaSe2)2,mp-7841,6.5294149123378995,6.529414859631409,11.50654136,8.18845704398977,414.71996409700495,4.745645848121506
Ba(InS2)2,mp-21943,15.576905687904983,12.913795078550583,12.787635622466881,13.75944546297415,1606.1243984397615,4.096007203315983
Ba(InSe2)2,mp-21766,16.371606370994385,13.556257327094709,13.401661197792794,14.443174965293963,1850.4140633883485,4.901912836591853
Ba(ZnAs)2,mp-7427,4.26304984,10.05250841,10.90195991,8.405839386666665,467.19634427852776,5.942561357577934
Ba12In4S19,mp-1229044,9.736126082459707,9.73612549,26.071583442828988,15.181278338429564,2089.941276587223,4.31661869905659
Ba2B6H4O13,mp-1199077,8.7383086,6.824896473942733,8.486187792682218,8.016464288874984,497.3501910715964,3.682959447764339
Ba2Cd(BO2)6,mp-1190588,7.257798040116713,7.257798040116713,7.257798721481948,7.257798267238457,268.8436429007194,3.977258358340241
Ba2DyGaSe5,mp-1105698,7.404408,8.786165141619922,9.54309749558858,8.577890212402833,545.8254191750558,5.486259273954726
Ba2DyGaTe5,mp-1105922,10.452777501369336,10.452777501369336,14.318163,11.741239334246224,660.3041375477908,5.758294933640973
Ba2DyInSe5,mp-1106127,9.789628275753731,9.789628275753731,13.519105,11.032787183835822,557.8393648875772,5.636575660019457
Ba2DyInTe5,mp-1189860,10.502486248227987,10.502486248227987,14.399449,11.801473832151991,677.4336683519982,5.833766718347979
Ba2ErGaSe5,mp-1105790,7.393932,8.748770714514354,9.517053821532901,8.553252178682419,541.5181433424789,5.5590838751295655
Ba2ErGaTe5,mp-1105724,10.480628804723503,10.480628804723503,14.365201,11.775486203149002,665.0260627385627,5.7411749624021455
Ba2ErInSe5,mp-1188122,9.75317919822152,9.75317919822152,13.492213,10.999523798814346,551.3263096431463,5.731830209966496
Ba2ErInTe5,mp-1106146,10.481026556846091,10.481026556846091,14.360813,11.774288704564063,671.5406101903811,5.908495985121887
Ba2GaAsSe5,mp-1195309,9.144956,9.389162,12.799516,10.444544666666667,1099.0109011748523,4.920215178645581
Ba2GaBiS5,mp-1201906,9.008778,9.080753,12.376863,10.155464666666667,1012.5076926285598,4.681831120781826
Ba2GaBiSe5,mp-1203584,9.290114,9.451251,12.841301,10.527555333333334,1127.5073101089654,5.585604243519177
Ba2GaBiTe5,mp-1202829,9.802238,10.049688,13.711926,11.187950666666666,1350.754063849027,5.858344040352605
Ba2GaS4,mp-1199702,6.25374553,12.830450076075028,20.102754626172825,13.062316744082617,1563.02197793212,4.016998936170856
Ba2GaSbSe5,mp-1203387,9.271603,9.458815,12.808909,10.513109,1123.3205372351147,5.090691303125992
Ba2GaSbTe5,mp-1200935,9.785476,9.9941,13.673562,11.151046,1337.2336942096854,5.484344677575937
Ba2GaSe4,mp-1195574,6.541475,13.435549,21.035307081403303,13.670777027134434,1791.5354824379092,4.895537405451072
Ba2GdGaSe5,mp-1190156,7.406566,8.822396243599695,9.560814559020692,8.59659226754013,548.5889302385677,5.426839558019166
Ba2GdGaTe5,mp-1105573,7.886872,9.38563543173679,10.214318394583263,9.162275275440019,664.7970764895899,5.693151254048244
Ba2HgS5,mp-1194545,8.4702305,8.75834125,12.27656828,9.835046676666666,910.7392948649457,4.635298641314908
Ba2In2S5,mp-22841,11.92852595,12.84814138,13.3231291,12.699932143333333,2041.8946102537304,4.323902580304948
Ba2In2Se5,mp-573635,12.487584,13.43874,13.930916,13.285746666666668,2337.8500275694064,5.108878847773123
Ba2InAgS4,mp-1197611,7.391115,8.47333581838847,14.804293013113627,10.2229146105007,888.9663264402408,4.67434385881705
Ba2InBiS5,mp-864638,9.552514612349672,9.552514612349672,12.963836,10.689621741566448,508.7964737048264,4.952783993877049
Ba2InSbSe5,mp-1189339,9.931794052233714,9.931794052233714,13.382144,11.081910701489143,563.9965038747204,5.335144885663771
Ba2NaCu3S5,mp-1191092,8.796243234884141,8.796243234884141,10.469061882012399,9.35384945059356,480.41085870553957,4.483815716208886
Ba2NdGaS5,mp-1228486,8.222039626969696,8.222039626969696,8.917941425218265,8.454006893052552,461.33916065863355,4.671603696062709
Ba2NdGaSe5,mp-1205363,7.438302,8.941670804601173,9.650413102565764,8.67679530238898,562.8412374724637,5.212666251194766
Ba2NdInSe5,mp-1190093,9.865259368444907,9.865259368444907,13.509905,11.080141245629937,567.780586129152,5.431090137817126
Ba2NdInTe5,mp-1205400,10.590405758639704,10.590405758639704,14.396913,11.859241505759803,689.4538646749269,5.644110422963621
Ba2ScTaO6,mp-1205823,5.879493890616777,5.879493890616777,5.879493890616777,5.879493890616776,143.7159044723548,6.892776027795513
Ba2SmGaSe5,mp-1189376,7.433161,8.876653556155777,9.617890381798441,8.642568312651406,557.0061959290869,5.303750480629185
Ba2SmGaTe5,mp-1189729,7.90462,9.398319025063206,10.234342007226747,9.179093677429984,670.0210417624331,5.61461185080276
Ba2SmInSe5,mp-1188304,9.824457806100956,9.824457806100956,13.504799,11.051238204067303,563.0723235037008,5.512588291455211
Ba2SmTaO6,mp-1214622,6.114489515635627,6.114489515635627,6.114489515635627,6.114489515635628,161.64624337344023,7.21098815993186
Ba2SnSe4,mp-1192595,9.40761517,8.647346195429968,12.578462758955256,10.211141374795075,933.839719250766,5.044381488223018
Ba2SnSe5,mp-31307,12.571135,17.593366,18.447931,16.204144,4080.1026864279265,5.132330094499807
Ba2TaInO6,mp-1079630,5.939640393424504,5.939640393424504,5.939640393424504,5.939640393424504,148.17176644031986,7.468428663189091
Ba2ThCu2Se5,mp-1078405,7.459148445116574,7.459148445116574,9.858328585552673,8.258875158595274,272.77735254430667,6.261531608034104
Ba2V2Te2O11,mp-1204192,7.78678,7.69656,9.710092380128419,8.39781079337614,580.7676978338706,4.61894795279787
Ba2V2ZnO8,mp-556688,16.449602,6.270531,8.067731484130219,10.262621494710073,832.1545982567941,4.549200978988435
Ba2YGaSe5,mp-1106265,7.403005,8.786703012003365,9.54020479146931,8.57663760115756,545.6458567225851,5.04013328742482
Ba2YGaTe5,mp-1189739,10.475599421492692,10.475599421492692,14.31024259,11.753813810995128,658.8184170401735,5.400295370598644
Ba2YInSe5,mp-1205397,9.802315899456465,9.802315899456465,13.559046,11.05455926630431,559.4684048644975,5.1832987150220555
Ba2YInTe5,mp-1106096,10.43308639049845,10.43308639049845,14.132841,11.666337926998969,682.4808463080432,5.432501272497813
Ba2ZnSe3,mp-1190528,4.44401323,9.22608162,17.81171133,10.493935393333334,730.2949265261692,5.247394475317219
Ba2ZnTe3,mp-1190380,4.732197,9.876163,19.160089,11.256149666666667,895.4649408087806,5.361872683549311
Ba3Bi2TeO9,mp-556407,6.264835890410299,6.264835890410299,15.053885,9.1945189269402,511.6802199628292,7.14956003425265
Ba3Cd(SnS4)2,mp-1228659,12.955315989683385,12.955315989683385,12.955315989683385,12.955315989683385,1673.8646506646155,4.04090036335375
Ba3Dy2(PS4)4,mp-560798,10.42252,12.763902,19.446524,14.210982000000001,2587.0104450156455,3.527533143638132
Ba3Er2(PS4)4,mp-560534,10.396324,12.723536,19.420118,14.179992666666665,2568.854420882231,3.577075079217028
Ba3FeS4Br,mp-1195713,8.614221,9.638077,12.533238,10.261845333333333,1040.5661353344017,4.3149887950954655
Ba3Gd2(PS4)4,mp-684036,10.424323032252694,12.821805755007755,19.38684527899483,14.210991355418427,2591.2172795475785,3.494891192032606
Ba3GeS5,mp-1200759,8.70987386,9.63072002,12.15399268,10.164862186666667,1019.5055475527674,4.201872295518717
Ba3Ho2(PS4)4,mp-559171,10.412213,12.742907,19.435869,14.196996333333333,2578.7872870152287,3.551301134559748
Ba3In2(PO4)4,mp-1200796,9.802083,9.075361,9.301994225640543,9.393146075213513,748.7657292020361,4.530775529321387
Ba3InS4Cl,mp-1205371,9.437510984290508,9.437510984290508,9.437510984290508,9.437510984290508,523.8349524113831,4.377799330410555
Ba3MgTa2O9,mp-6325,5.843422089172149,5.843422089172149,7.178666,6.288503392781433,212.27990794747208,7.3700835304400085
Ba3Nb2Se9,mp-1195033,7.457707,12.578958,17.853612804032803,12.630092601344268,1660.893532193597,5.2326180635281645
Ba3P3ClO10,mp-1194911,5.683138,14.396612,14.507186,11.528978666666665,1186.9479682271985,3.919151911622161
Ba3Sb2S7,mp-1195624,11.19649240756162,11.19649240756162,13.409887779768217,11.934290864963819,1457.6758543085587,4.009674196276463
Ba3Ta2Se9,mp-1195068,7.462311,12.579143,17.858084424442897,12.633179474814298,1661.7346515426332,5.933794719184651
Ba3Ta2ZnO9,mp-1214475,5.852200114291718,5.852200114291718,7.185029,6.296476409527813,213.10688841245232,7.66176759167164
Ba3Tb2(PS4)4,mp-554264,10.435384,12.783812,19.461901,14.227032333333334,2596.2951919657785,3.496627944321598
Ba3ThSe7,mp-1095255,5.86729716,8.459875062753788,8.459875062753788,7.595682428502525,356.28746512126656,5.577608409489747
Ba3V2(SeO4)4,mp-1200758,15.689522,9.138662,14.589388872677054,13.139190957559018,1684.4187018448101,4.2812109925266
Ba4Ga4SnSe12,mp-1195344,13.990948,13.990948,6.565649,11.515848333333333,1285.203638847826,4.895372108904389
Ba4LiGa5Se12,mp-1197353,6.58024475,13.9008697,13.9008697,11.460661383333333,1271.5281880449352,4.838203395355748
Ba5(Ga2Se5)2,mp-1228123,8.940645571272636,8.940645571272636,9.451237982246454,9.110843041597242,566.9750778699371,5.140361656272003
Ba5(GaSe4)2,mp-1204617,13.511069374965883,13.511069374965883,12.429412,13.150516916643923,1881.7446481894565,5.145584641561135
Ba5In4Te4S7,mp-1105201,20.397035085033632,20.397035085033632,20.397035085033632,20.397035085033632,661.8782175607454,4.718509679146709
Ba8Al10B12O41,mp-1019529,9.353635,9.932583225731412,11.234314466504397,10.173510897411935,961.963716660688,3.7184683237829623
Ba8Sn4S15,mp-1195594,8.66957269,25.74745536,29.13099517,21.182674406666667,6502.604306898791,4.197042014707602
BaAgSbS3,mp-1190401,6.269748893123712,6.269748893123712,17.417606568352525,9.985701451533316,664.0076507774867,4.632952646874406
BaAl4Se7,mp-1191234,6.5791628,7.6853016834006205,14.815624668519776,9.693363050640132,641.7007611769973,4.129855151017178
BaBClF4,mp-1103527,4.794597,5.327637,9.511563,6.544599000000001,242.96215138054413,3.548292507234951
BaBSbS4,mp-866301,6.25226943,9.88537701,11.85354969,9.330398709999999,732.6209720150708,3.609817020994163
BaBiClO2,mp-552806,7.336035372754483,7.336035372754483,5.78393,6.818666915169655,232.14067732689642,5.919370303186048
BaCaB2O5,mp-1019542,20.831907,6.655996,8.291796843642034,11.926566614547346,1024.7571456742523,3.6170931188902844
BaCdSnS4,mp-12306,15.558828915886803,12.914191213840633,12.781017837939325,13.751345989222253,1606.086617582883,4.108386333155849
BaCu2SnSe4,mp-12364,6.656005027892482,6.656005027892482,11.213632,8.175214018594987,437.9902632102209,5.299959512046295
BaCuTeF,mp-13287,4.448809,4.448809,9.526645,6.141421,188.5504196415294,6.12027107271242
BaF2,mp-1029,4.402255516494255,4.4022563287645236,4.40225758,4.402256475086259,60.32690236247557,4.825907156361877
BaGa2GeS6,mp-1227983,6.303771,6.351486740917436,6.400369778308907,6.351875839742114,241.64979824809052,3.7230945542831164
BaGa2GeSe6,mp-1227970,6.637803,6.679830540876693,6.680904435514251,6.666179325463648,279.9605780435599,4.8825121544706915
BaGa2SiS6,mp-1227993,6.172396455839596,6.252700355195221,6.410232942607086,6.278443251213967,232.8189849778162,3.5465344896032667
BaGa2SiSe6,mp-1227978,6.531019,6.655397773945747,6.742454310639784,6.642957028195177,276.506229328853,4.6759396356665635
BaGa4S7,mp-4309,5.97088255,6.26526937,14.8705323,9.035561406666668,556.2945318144618,3.8248235246350175
BaGa4Se7,mp-1191072,6.59331972,7.694557631171614,14.835151401185946,9.707676250785854,644.9100652346652,4.989722286523408
BaGe2,mp-2139,6.86588645,9.20070564,11.73438009,9.266990726666668,741.2725268258605,5.064587686842674
BaHgS2,mp-28007,4.26464444,7.42236288,14.53650438,8.741170566666666,460.1347096257203,5.803646072710984