Formula,Material ID,a,b,c,avg_lattice,volume,density
La10Se14O,mp-558535,15.49724743272098,15.49724743272098,15.49724743272098,15.49724743272098,2710.9276493222596,6.151065714440611
La2Fe(SeO)2,mp-1078132,3.97525507,6.015297207221978,6.726186132309394,5.572246136510458,138.37567832289784,6.283013898050536
La2HfS5,mp-1197947,7.40986905,8.2202847,11.48751454,9.039222763333333,699.7186768128346,5.8533893507766726
La2Mn(SeO)2,mp-1196301,4.033706,16.635522,17.846066,12.838431333333332,1197.5210851114016,5.798045890874985
La2MoO5,mp-1105399,7.073245795115635,7.073245795115635,7.073245795115635,7.073245795115635,248.39888927943602,6.066582527361159
La2O3,mp-1968,3.93077848,3.93077727593967,6.11195352,4.657836425313223,81.78386608522705,6.615226585908185
La2S3,mp-7475,4.15834987,7.62781072,15.89540251,9.2271877,504.1879526114183,4.927142517339004
La2Se3,mp-32798,15.075426651597178,15.075417376506362,15.075515296879699,15.075453108327748,1131.0472000690804,6.045119341034584
La2TiCoO6,mp-1211314,5.696244067288725,9.696930258007738,9.696494074534053,8.363222799943506,504.10583542498415,6.332539966707742
La2Zn(SeO)2,mp-1196943,14.62648847835686,14.62648847835686,5.776965,11.676647318904573,1198.6164064689565,5.90879751626913
La2ZrS5,mp-1198687,7.43738499,8.22996241,11.57267077,9.080006056666667,708.3562214576181,4.963733410030479
La3CuGeSe7,mp-510011,10.791109657892001,10.791109657892001,6.206082,9.262767105261334,625.8645628899561,5.866857826990432
La3LuSe6,mp-645695,4.18185897,14.74886367,17.73586391,12.222195516666666,1093.9067230200994,6.469328209893499
La3Mo4O16F,mp-1198818,7.337632717967492,7.5279748254235015,14.868768196395187,9.911458579928727,765.5876331086313,4.665310472784239
La4Cd4In2S13,mp-1196490,4.034969,20.699181,25.440534,16.724894666666668,2124.8074850959506,5.16336701863756
La4Fe(SbS5)2,mp-1203562,7.629412,13.259256,15.107025,11.998564333333334,1528.2315865418607,5.109673126945966
La4InSbS9,mp-1196663,10.369291,10.369291,28.448297,16.395626333333336,3058.8233614247547,4.693793145334563
La6Sb4(SO4)3,mp-1223262,10.923629430034827,10.923629430034827,10.923629430034827,10.923629430034827,922.6833055470552,5.790163945422655
La8Sb2S15,mp-1195582,15.099356110948607,15.099356110948607,15.099356110948607,15.099356110948607,2564.341926855344,4.754928966575054
LaCuSO,mp-6088,3.989429,3.989429,8.535204,5.504687333333333,135.84241264338414,6.124617206709288
LaCuSeO,mp-552488,4.069512,4.069512,8.82454,5.654521333333332,146.14257085077844,6.758638028487416
LaCuTeO,mp-546790,4.182825,4.182825,9.38487,5.9168400000000005,164.19791995991815,6.999248087992701
LaF3,mp-905,7.16720035,7.167200385788867,7.33175557,7.222052101929623,326.1652750807279,5.984096220582201
LaGaO3,mp-5837,5.559203,5.588688,7.878575,6.342155333333333,244.776697806021,6.9637120671375285
LaGaS3,mp-4816,10.57888155,10.389923445501182,12.880819134715406,11.283208043405528,1399.3919751039664,4.34049606706342
LaMg2H7Pd,mp-1180682,4.766288,8.111083,11.753604,8.210325,454.391481212654,4.399795488138083
LaTaN2O,mp-550514,5.670302192881963,5.670302192881963,5.734649041855657,5.691751142539861,133.42307958564874,9.057113041682872
LaVI5O16,mp-1202389,18.369377,7.592156,12.766549191238836,12.909360730412944,1474.4794468918487,4.866746769031425
LaZnAsO,mp-549589,4.110634,4.110634,9.167098,5.7961219999999996,154.89931395845508,6.329918696896234
Li2B4O7,mp-4779,8.48278628257738,8.482783387077088,8.482701164391843,8.482756944682103,466.64867875942014,2.4072358388353647
Li2CdGeS4,mp-1189383,6.464864,6.905654,7.852415,7.074311000000001,350.5641099724573,3.0996713203798323
Li2CdSnS4,mp-1188784,6.575684,7.044386,8.076993,7.232354333333333,374.1396937644697,3.313296097401023
Li2Ga2GeS6,mp-554782,13.065740942993552,12.022942950569549,7.063133582599864,10.71727249205432,489.29861987700843,2.8395739313520427
Li2In2GeS6,mp-1191476,7.169955893066289,7.169955893066289,12.33605231604803,8.891988034060203,518.1722214385723,3.2593944109811965
Li2In2GeSe6,mp-1191200,7.524045277262557,7.524045277262557,12.885698120029236,9.311262891518117,599.6262885580255,4.375023988907741
Li2In2SiS6,mp-1191903,7.083473897026091,7.083473897026091,12.236735820825585,8.801227871625922,501.7393280987524,3.0712335679088767
Li2In2SiSe6,mp-1191817,7.4565394286978055,7.4565394286978055,12.803789574794058,9.238956144063224,584.6080787208679,4.2343075835552195
Li2PtO3,mp-531826,5.192414074981526,5.192414074981526,28.519691507157546,12.968173219040201,666.1738716940547,7.6862653000641314
Li2TeMoO6,mp-1203622,13.246263,5.461342,8.618016193640218,9.108540397880072,512.6939384353232,4.319569530413783
Li2TeWO6,mp-1196881,13.107933,5.475707,8.696240372206198,9.093293457402066,510.8354423236782,5.478207694399647
Li2ZnSnS4,mp-555186,6.79705,6.459176,10.310873050113894,7.855699683371299,352.33512162435875,3.075305884410742
Li3Bi,mp-23222,4.731246117644317,4.731246069532135,4.73124571,4.731245965725484,74.88789412092665,5.095583576182748
Li3PS4,mp-985583,6.17176593,8.01859859,13.03281824,9.074394253333333,644.980015636747,1.8542669866217394
Li3ScN2,mp-542435,8.64549029656829,8.64549029656829,8.64549029656829,8.64549029656829,497.4472018838932,2.504720864974737
LiAlB14,mp-8204,7.182876286703347,7.182870444981862,7.182903498939542,7.182883410208251,244.48639067743554,2.5167775565522934
LiAsS2,mp-555874,6.546425428224051,6.546425428224051,5.368529908830547,6.153793588426216,158.8211673254257,3.0528224898104876
LiAsSe2,mp-1078724,5.57132216,5.627402536914796,6.828426415127278,6.009050370680691,180.1193542287808,4.421161473687972
LiB3,mp-1222413,4.14105703,5.95595135,5.95595135,5.350986576666667,146.89719224397047,1.7803489422648802
LiB3O5,mp-3660,5.21748754,7.32144299,8.34253838,6.960489636666668,318.68110831890215,2.4880070232559994
LiBi3(ClO2)2,mp-754206,6.800678615815042,6.800678615815042,10.977518,8.192958410543362,376.1190099246799,6.788270845459157
LiBiS2,mp-1222404,6.693282539952567,6.693282539952567,6.693282031384804,6.693282370429979,85.40092773823045,5.445330661763359
LiBr,mp-976280,4.139868916782453,4.139868916782453,6.69329149,4.991009774521635,99.3445024061208,2.9032208475784156
LiCa3As2H,mp-1192528,4.28336,11.480615,11.878292,9.214089,584.1222200119627,3.1614840263843815
LiCdBO3,mp-6126,8.433906130657252,8.433906130657252,3.315947,6.727919753771502,204.26583499690264,4.344979659816659
LiCl,mp-22905,3.595103463264988,3.595103244540918,3.59510428,3.5951036626019692,32.856351560680025,2.1425657398214
LiF,mp-1138,2.8874190721445334,2.887419441542915,2.887419,2.8874191712291495,17.02215120415618,2.5304317804069387
LiGa(GeSe3)2,mp-1222398,7.336116047447723,7.336116047447723,12.653558228317124,9.10859677440419,562.1696138591242,4.109947041994989
LiGaO2,mp-5854,5.00599204,5.4012723,6.3509718,5.586078713333333,171.72218722098282,4.2030404435495
LiGaS2,mp-3647,6.24043536,6.5305152,7.84854004,6.873163533333333,319.85357696230477,2.9237620484129625
LiGaSe2,mp-11582,6.58957376,6.86953237,8.26428029,7.241128806666667,374.1015745850539,4.165028140620471
LiGaTe2,mp-5048,6.357406651837215,6.357407017746545,7.4409870842311925,6.71860025127165,239.65377548288564,4.598910538235989
LiH3(SeO3)2,mp-696288,8.013076,5.560048,7.205381965341462,6.926168655113821,270.85746394737725,3.2355399653095818
LiI,mp-570935,4.54406925,4.544069352415347,7.29169756,5.459945387471783,130.39149697099566,3.4090510038684037
LiIO3,mp-23384,9.578146540008262,9.578146540008262,6.18228917,8.446194083338842,567.1687177525457,4.259170276463127
LiIn(IO3)4,mp-973966,4.978049,6.592342094822522,8.695738539168826,6.755376544663783,284.1810755323359,4.799462593368732
LiInS2,mp-1188392,6.52043193,6.93047068,8.08859815,7.179833586666667,365.5210189743567,3.377928278021819
LiInSe2,mp-20187,5.981418040960378,5.981418528532349,7.244016131474505,6.402284233655744,210.40947671206862,4.414420042906587
LiInTe2,mp-20782,6.486789505803771,6.486789937863914,7.812293968818259,6.928624470828648,266.1031655628087,4.704605033033507
LiMgAs,mp-12558,4.353097251953211,4.35309750341856,4.35309675,4.353097168457257,58.328389330975824,3.022463836722795
LiMgBi,mp-570213,4.794747920661557,4.794748524516026,4.79474891,4.794748451725861,77.94396843335585,5.117847218284155
LiMgN,mp-37906,3.505191,3.5051903593215874,3.505191045560142,3.505190801627243,30.452298785809447,2.4675928982460373
LiMoIO6,mp-558917,5.431923,5.502792,9.107416437551814,6.680710479183939,260.23128451863494,4.157636337427093
LiNbO3,mp-3731,5.153943290372108,5.5315293056284185,17.212470286130525,9.299314294043684,429.06236195769645,4.577485851594526
LiSbS2,mp-1079885,5.571755429571324,5.571755429571324,6.736371626096534,5.9599608284130605,169.30242856169352,3.7826203849741353
LiSbSe2,mp-37480,6.996745059036294,6.996745059036294,6.996745059036294,6.996745059036294,183.4092510914638,5.189982129861168
LiSbTe2,mp-1222285,4.339283,4.339283,6.084565,4.921043666666667,114.56856798665653,5.564201590448894
LiSiB6,mp-973391,6.278476656928874,6.278477051486856,8.413598090000024,6.990183932805252,281.67713989551106,2.3555393777694906
LiTaO3,mp-3666,5.4768476568179745,5.476847758619139,5.476847362093205,5.476847592510107,105.12489484369374,7.452082824503236
LiZnBO3,mp-1222376,5.079304258272959,5.079304258272959,6.009853829678598,5.389487448741505,117.08812040451187,3.7201891155408826
LiZnN,mp-7575,3.439930144185033,3.4399298931428417,3.43992825,3.4399294291092914,28.78282869116706,4.982091077680031
Lu2O3,mp-1427,8.886730071708312,8.88673119415072,8.88672962,8.886730295286345,540.2615684677361,9.78462289416088
Mg2Ge,mp-408,4.503273793681518,4.503274732778721,4.50327413,4.5032742188200805,64.57586863742208,3.1178885561064233
Mg2GeSe4,mp-1192564,6.33803179,7.85449782,13.49953194,9.230687183333332,672.0344668586747,4.320046404839095
Mg2Si,mp-1367,4.482798706125442,4.482798959558671,4.48279971,4.482799125228038,63.69904837788204,1.9993371522115477
Mg3As2,mp-1990,10.70595814074998,10.705958857779358,10.70595736,10.705958119509779,944.6147476461049,3.132694630713741
Mg3AsN,mp-1206514,4.20628578,4.20628578,4.20628578,4.20628578,74.42114156493827,3.6111663522785498
Mg3N2,mp-1559,8.601010937853166,8.601010648206778,8.60100680136338,8.60100946247444,489.827010464277,2.73722024386655
Mg3P2,mp-2514,10.401487172319609,10.401487402113794,10.40148748,10.401487351477801,866.2922139668336,2.0680734386085926
Mg3Sb2,mp-1196139,11.522122020203144,11.522122020203144,11.522122020203144,11.522122020203144,1177.5395959499585,3.569834467371242
Mg5B3O9F,mp-560026,4.573469,10.18582,15.002844,9.920710999999999,698.9004665527352,3.0122144608524106
MgCu2GeS4,mp-2222834,5.476501044698157,5.476501536243736,6.534157066061008,5.829053215667634,157.84828631548194,3.706108854275235
MgCu2SiS4,mp-1205334,6.204016,6.457781,7.566734,6.7428436666666665,303.15496762818077,3.371334784326635
MgF2,mp-1249,3.04778351,4.61519661,4.61519661,4.092725576666667,64.91790990921109,3.187243199654242
MgGeN2,mp-7798,5.17443786,5.50099505,6.60892969,5.7614542,188.12025622947417,4.412035345023502
MgO,mp-1265,2.965608463297897,2.9656084142286705,2.96560719,2.965608022508856,18.4427700910204,3.6289033819523207
MgSe,mp-1018040,4.221600250795409,4.221334175872532,6.816717830000074,5.086550752222672,105.19956856773545,3.260005132094054
MgSiN2,mp-3677,4.98462404,5.2693519,6.4610662,5.5716807133333335,169.7046730175214,3.1469685467816175
MgTe,mp-13033,4.570736628186195,4.570736004346762,4.57073689,4.570736507510985,67.5217326217723,3.7357481379341437
Mn(PbO2)2,mp-21823,13.085379,13.085379,5.245501,10.472086333333333,898.1721528426774,7.888239877665714
Mn(SbSe2)2,mp-1210700,6.944924838597612,6.944924838597612,15.886535374543785,9.925461683913003,382.09506189337435,5.339330465061909
Mn11Si19,mp-567968,5.49093527,5.49093527,47.72219037,19.56802030333333,1438.8417035150683,5.253111010460837
MnF2,mp-560902,3.31042523,4.87305925,4.87305925,4.352181243333334,78.6116961747604,3.9261829704143527
MnI2,mp-28013,4.16858148,4.168580934901684,7.14619956,5.161120658300561,107.54303416765337,4.767267673406124
MnO,mp-1232659,3.1546052865504883,4.397058910000613,6.193187311575157,4.581617169375419,85.9056100387418,5.4848291586156375
MnO2,mp-644514,2.8569248739972797,8.888653907850047,6.97240585018078,6.239328210676035,173.18380507009397,5.001461680242682
MnP4,mp-569522,5.0883279872755525,5.819581002897771,16.292145948585723,9.066684979586348,433.09111836081127,4.1140442471047685
MoO3,mp-715584,7.144683523435227,5.40499669,5.601637500626176,6.050439238020467,216.31208088552106,4.4198179463231755
MoSe2,mp-1634,3.32226017,3.3222602064893203,13.54295655,6.729158975496439,129.4527726305449,6.5127140791360825
Na(GeP)3,mp-1104707,3.62840761,8.40561843,10.42401746,7.4860145000000005,317.92221148273836,3.4872650536204644
Na2Be4B4O11,mp-1020144,8.906096,12.866705942641925,15.365360623653094,12.379387522098341,1652.7588755960687,2.421470747535384
Na2Cd(GeS3)2,mp-1190146,7.437317588940249,7.437317588940249,11.744967270240688,8.873200816040395,555.9985001919881,2.96305800606685
Na2CdSnS4,mp-2831941,7.050909615625057,7.050909615625057,6.4133569467012155,6.838392059317109,222.12645205745184,3.0303325160156858
Na2EuGeSe4,mp-1221353,6.428677407596994,6.428677407596994,6.428677407596994,6.428677407596994,204.5170268980614,4.761360020347146
Na2Ga2GeS6,mp-1190388,13.118942079164768,12.07936356459909,7.313665063626854,10.83732356913024,536.3449187660344,2.789246223367379
Na2Ge2Se5,mp-17964,6.19714026,11.21003368,14.08299227,10.496722069999999,978.3476000115535,3.978850703455322
Na2In2GeS6,mp-1190145,7.362579525021716,7.362579525021716,12.463126190305424,9.062761746782952,581.9893308348178,3.0851529070957584
Na2In2GeSe6,mp-1190429,7.705503229128257,7.705503229128257,13.068529089451076,9.49317851590253,666.7171580626866,4.0946566279993
Na2In2SiS6,mp-1190138,7.2155764603031916,7.2155764603031916,12.294411001889712,8.908521307498697,551.6837863518672,2.9864156623723432
Na2Mo2Se2O11,mp-1195277,9.064028872335856,9.064028872335856,9.574220807231939,9.23409285063455,488.3321592417072,3.8885471035857653
Na2Nb4Se4O19,mp-1192640,4.01449,10.368539186397909,11.123727157746185,8.502252114714699,440.84806891357647,3.9076934674797497
Na2S,mp-648,4.594998001438738,4.59499878520615,4.594998,4.594998262214963,68.60267970013784,1.8890808023843084
Na2Se,mp-1266,4.7797231474600075,4.779723933066742,4.779725,4.779724026842249,77.2135617348962,2.686924163065691
Na2Te,mp-2784,5.1378101610424265,5.137808210013997,5.13780802,5.137808797018808,95.90002973074063,3.0055841040984324
Na2TeS3,mp-1190141,12.366417,5.859269,8.519854754294641,8.915180251431547,616.9087338725751,2.904618695480478
Na2TeSe3,mp-573581,11.27234863003713,11.27234863003713,12.033018658055289,11.525905306043184,671.663154742201,4.059082855596543
Na2Ti3O7,mp-3488,3.79164808,8.546191356546238,9.137312914467111,7.1583841170044495,289.7451538065769,3.456687956033042
Na2Zn(GeS3)2,mp-1190399,7.287815640250307,7.287815640250307,11.653360991146933,8.742997423882516,532.3858949030106,2.8012734883031762
Na2Zn(GeSe3)2,mp-1190476,11.060071670028996,11.060071670028996,11.060071670028996,11.060071670028996,601.7438170156992,4.031300660981383
Na2Zn(SnS3)2,mp-1190487,13.688249537183196,12.557416152566578,7.564666517206426,11.270110735652068,586.939238563255,3.0622635428687723
Na3MoO4F,mp-1194849,5.664707,7.612018,13.042128,8.772950999999999,562.3746245436955,2.9279874008081905
Na3Sb,mp-7956,5.320682,5.320680826701128,9.470085,6.703815942233709,232.17691812387204,2.728208035261483
Na3Zn(BO2)5,mp-560158,18.14018515,6.460471173830393,7.898180323455201,10.832945549095198,845.2840413228051,2.7379064468466967
Na4Mg(GeSe3)2,mp-1103730,7.152969692785367,7.194035970644364,7.194035970644364,7.180347211358033,323.53548336994055,3.773932717271349
Na4Mg(SiSe3)2,mp-1103351,7.046701903425429,7.046701903425429,7.034537921076963,7.042647242642608,305.06606980919986,3.517376320721198
Na5Gd(MoO4)4,mp-556070,9.853671977741522,9.853671977741522,9.853671977741522,9.853671977741522,736.4846603516414,4.112311992161791
NaAsS2,mp-5942,5.60396237052025,5.838962930392906,11.52781333,7.656912876971052,377.2032996439169,2.8533793246114985
NaAsSe2,mp-984519,5.99104537,11.762898255183039,11.981909867575599,9.91195116425288,844.2655477837196,4.025444214952513
NaBiS2,mp-1221125,7.136081171726416,7.136081171726416,7.136081478444894,7.136081273965909,95.23997070706925,5.162600272406609
NaBiSe2,mp-1221101,7.4542931854595755,7.4542931854595755,7.454292659428529,7.454293010115894,107.46877154353464,6.024334776269959
NaBr,mp-22916,4.188253740398156,4.188253501572474,4.18825214,4.188253127323542,51.949789918521965,3.2889280951307467
NaCdAsS3,mp-1192203,16.733991,5.767011,8.110737929292808,10.20391330976427,562.2278667782199,3.621194155299142
NaCl,mp-22862,3.951402922131455,3.951402172480169,3.951402,3.951402364870541,43.625325465502776,2.224545043829438
NaF,mp-682,3.232742136605728,3.2327423203198777,3.23274373,3.232742728975202,23.889026260060266,2.918620456906104
NaH3(SeO3)2,mp-1220990,4.887412,5.84045,11.891892977905956,7.539918325968652,299.7941266609154,3.101025949304965
NaI,mp-23268,4.551867631415619,4.55186678662684,4.55186811,4.551867509347486,66.68896277659789,3.7323303560221612
NaIn(IO3)4,mp-1196607,5.08452,7.315483,15.839235960973529,9.413079653657844,577.90267981543,4.812457525080687
NaIn(TeO3)2,mp-1194878,8.420704,10.862272,13.830182,11.037719333333333,1265.018772947184,5.135168231079662
NaIn3S5,mp-1195769,3.851917,12.66737,16.320182,10.946489666666665,796.3213765298211,4.402145592724887
NaInS2,mp-20289,6.985862846998567,6.985862736197737,6.985863299047232,6.985862960747845,83.6359557073411,4.009346842222601
NaInSe2,mp-22473,7.325631478000221,7.325630898670253,7.325631502942533,7.325631293204336,96.18797473292786,5.105290087782719
NaInTe2,mp-22483,6.942931692788786,6.942932600918513,6.942933023270079,6.94293243899246,254.28877528651236,5.1327845960283245
NaLa2TaO6,mp-13019,6.0215,5.724436,9.991289556460869,7.245741852153624,285.5542309167873,6.719340996291562
NaNb2PS10,mp-557436,8.264473620087854,13.031002055954263,13.70606406149015,11.667179912510756,1407.3472797518298,2.6450038707838868
NaNbSe2O7,mp-1190450,6.887925999298773,6.887925999298773,7.516351,7.097400999532515,334.37346335118343,3.831977619992375
NaSb,mp-7944,6.34242564,6.785245325084661,11.139580556097892,8.089083840394183,477.144587518805,4.0300177859408866
NaSb(PS3)2,mp-554384,7.410022,11.425955,11.934955845985229,10.25697761532841,955.6753529486472,2.773745454166595
NaSbF6,mp-5955,5.847214218989148,5.847214970069633,5.84721585,5.847215013019594,141.361871001442,3.039349918240008
NaSbS2,mp-5414,5.8505339289683,5.850533297161232,6.855091491969737,6.185386239366423,193.5071325809145,3.5849119614937073
NaSbSe2,mp-1220879,7.402439120903445,7.402439120903445,7.402438967640465,7.4024390698157845,102.88752122861273,4.884897314723899
NaSbTe2,mp-1220883,7.977813265102388,7.977813265102388,7.97781327076727,7.977813266990682,126.85507391371195,5.235361866714497
NaSc(SeO3)2,mp-1194561,5.571989,8.291117,13.030456,8.964520666666667,601.9811720577214,3.55137060646393
NaSm(PS3)2,mp-561232,7.403845,11.174187,11.756233907736014,10.111421969245338,906.6098677114744,3.1333939065656304
NaY(Te2O5)2,mp-1195227,9.110713,9.110713,13.650672,10.624032666666666,1133.0752765996365,4.585829383228455
Nb2AgPS10,mp-554930,13.312042962645252,13.312042962645252,13.059491116329188,13.22785901387323,1358.222839242014,3.1557522662200452
Nb2O5,mp-581967,3.871906,19.788757,20.814480765221337,14.825047921740444,1436.934978242596,4.3004206622122565
Nb2Pb2Se4O15,mp-1199265,13.98835246125894,13.98835246125894,7.879152183444739,11.951952368654206,763.3369616501556,5.029642012956659
Nb2Tl3CuSe12,mp-570757,13.761843,9.833251,17.325911995460267,13.64033533182009,2058.4737701064455,5.840488900551256
Nb2Tl4S11,mp-17803,7.965788181543968,9.025204934116054,13.339709235828328,10.110234117162783,910.3007120977321,4.947358978950995
Nb3CuO8,mp-27383,5.101033,7.662057,15.562873166557196,9.441987722185731,581.1618561232456,5.374651882707169