Formula,Material ID,a,b,c,avg_lattice,volume,density
BaIn2(P2O7)2,mp-1205018,7.749813261393722,7.749813261393722,10.041503896629228,8.513710139805559,586.1095018288697,4.05055971126653
BaLa2Te5O14,mp-559703,10.180768438494217,10.180768438494217,13.427860674696063,11.263132517228167,757.221157911418,5.601331849015704
BaNaB5O9,mp-1019554,14.153027,6.667674,8.515972920296658,9.778891306765553,775.616724116721,3.0689454615498435
BaO,mp-1342,3.946210029550849,3.9462094746618206,3.94621046,3.94620998807089,43.453575205003915,5.859229670745691
BaPd(IO3)4,mp-1106270,6.01964050081639,7.515755451703108,8.18090687499656,7.23876760917202,321.65937982617254,4.870003424938772
BaReH9,mp-28911,5.22523195897268,5.225243863574463,9.690468330008164,6.713648050851769,229.13336978879272,4.820811221024321
BaS,mp-1500,4.5617934537544,4.561793668426567,4.56179464,4.561793920726989,67.12620118023263,4.190346371817915
BaSe,mp-1253,4.714452457280579,4.714452988261567,4.71445379,4.714453078514048,74.09331260733886,4.84730673334938
BaSi2,mp-1477,6.78726579,9.02691849,11.64515377,9.153112683333333,713.4763881255375,3.6027652060427426
BaSn2S5,mp-1202711,6.70628813,10.75741299,11.60311401,9.688938376666668,837.0754599924151,4.245772343878512
BaSnO3,mp-3163,4.14346542,4.14346542,4.14346542,4.14346542,71.13628093297905,7.097114448493584
BaTaNO2,mp-1227303,4.134105,4.134105,4.143125,4.137111666666667,70.80942081071547,8.542674057494262
BaTe,mp-1000,5.013273241347371,5.013273943429635,5.01327346,5.013273548259002,89.09415786940792,4.937715825789215
BaTeMo2O9,mp-19049,7.58707,5.702284,9.00990686013768,7.4330869533792265,389.78945260179916,5.118940604557455
BaTiO3,mp-5777,3.98333387,4.0573426446750185,4.0573423579991434,4.032672957558054,65.57310741671338,5.905237274567591
BaV2SeO8,mp-1200210,5.461629,9.23576,14.19203,9.629806333333335,715.8785589847835,4.139667184937439
BaZnSO,mp-548469,3.991712,6.196435,6.818441312762397,5.668862770920799,161.26306331513743,5.165024817928211
Be3N2,mp-18337,7.038626730249244,7.038625203014622,7.03862696,7.038626297754623,268.4366404588809,2.7242953358663557
BeO,mp-2542,2.69427722,2.6942762026731035,4.37601889,3.254857437557701,27.51023288811809,3.0194371089026797
BeS,mp-422,3.4438238808145027,3.4438241675620023,3.44382351,3.443823852792168,28.880721048437852,2.361792329991975
BeSe,mp-1541,3.654284317881507,3.654283073325434,3.65428332,3.6542835704023133,34.50577300165209,4.233530574088316
BeTe,mp-252,4.004286976894119,4.004287530867143,4.00428684,4.0042871159204205,45.40050984281411,4.996636953414623
Bi2(MoO4)3,mp-23388,11.407649530000468,7.695467949059031,11.847552611424751,10.316890030161417,947.8065623428338,6.291529073515254
Bi2CO5,mp-556210,5.535521,5.555406,28.026017,13.038981333333334,861.8579406588494,7.860438033099017
Bi2I4O13,mp-1204764,5.712680280142464,12.329993280471394,16.875313270234752,11.639328943616201,1188.6516629956714,6.334366205339656
Bi2Mo2Se2O13,mp-1200193,6.713494,7.0687828572707625,11.848086363034074,8.543454406768278,556.3938226291571,5.82420548163448
Bi2O3,mp-23262,5.871987498537547,7.516697111360128,8.115312620000063,7.167999076632579,327.9206233179676,9.438175801265304
Bi2S3,mp-22856,3.9977937400000676,11.160617665700261,11.593590745820173,8.917334050506833,517.2810621133061,6.602026285137526
Bi2Se3,mp-541837,10.265524711106004,10.265524743365338,10.265524698550289,10.265524717673877,151.77783048479455,7.164344933185313
Bi2Te2Se,mp-29666,10.87569316631182,10.87569316631182,10.87569290433686,10.875693078986833,171.2386874142613,7.293480171224617
Bi2Te3,mp-34202,11.050857096948887,11.050857096948887,11.050856960201418,11.050857051366398,181.7667606640336,7.315389164356592
Bi4Pb7Se13,mp-1190436,7.467931051142679,7.467931051142679,23.938445603668963,12.95810256865144,730.245597533265,7.533131997340656
Bi5IO7,mp-554445,5.353163249788379,14.412386023538714,14.412386150346224,11.39264514122444,1012.1835905508891,8.424573735539456
Bi7O5F11,mp-1190898,7.266837962011834,7.266837962011834,9.148829794256859,7.894168572760176,337.5345547163007,8.618384190366806
BiBPbO4,mp-556601,7.50228763,7.515476257962116,10.475916913402202,8.497893600454772,430.26429607165056,7.57958699538571
BiBr3,mp-2913080,12.79575656,7.400329575130333,7.6716973725259585,9.289261169218763,691.496424150713,4.309906649201264
BiBrO,mp-23072,3.92782718,3.92782718,8.39431909,5.416657816666667,129.50609729692894,7.81849613632773
BiClO,mp-22939,3.8933967,3.8933967,7.49318875,5.093327383333333,113.58578538575841,7.614664760301017
BiI3,mp-22849,8.464759875658332,8.464760457225589,8.464759783012855,8.464760038632258,367.81189633263233,5.324512983950062
BiIO,mp-22987,4.0042141,4.0042141,9.60481707,5.871081756666666,154.0010489653947,7.58848827566523
BiP3(PbO4)3,mp-1227709,9.163298356580997,9.163298356580997,9.132960427273185,9.153185713478393,590.0824587631331,6.278180769726738
BiPO4,mp-1190564,6.93890082,6.467097320442882,8.148456721178293,7.184818287207058,293.9607729196479,6.867906491739534
BiPbBrO2,mp-1227444,7.1801479595619755,7.1801479595619755,7.1801479595619755,7.1801479595619755,106.06848147333677,8.267326653823874
BiPbClO2,mp-23084,5.654331,5.715646,6.9559734657149175,6.108650155238306,204.95523902001557,7.836737092505119
BiSBr,mp-23324,4.08533051,8.38961381,10.01116512,7.495369813333333,343.1261298289098,6.212864259187372
BiSCl,mp-23318,3.99549575,7.82798702,10.39470827,7.40606368,325.1120564496465,5.648961777257308
BiSI,mp-23514,4.1967163,8.74615388,10.60828543,7.850385203333334,389.3784591920204,6.27661976939594
BiSbTe3,mp-1227340,10.93960463181661,10.93960463181661,10.93960500028064,10.939604754637955,175.60495542387753,6.74731363324774
BiSeBr,mp-569707,4.166845,8.562737,11.016514,7.915365333333334,393.0647892813887,6.215972666966726
BiSeI,mp-23020,4.273991,9.037106,11.277488,8.196195000000001,435.5874447609272,6.325858300086527
BiTeI,mp-22965,4.39568684,4.395687688253773,7.22271835,5.3380309594179245,120.86064635924215,6.367951492873749
BiTeNO6,mp-1195032,9.04492363,7.393966325108457,8.19238191918289,8.210423958097117,499.86526314823703,5.934153884416214
CBr4,mp-680422,12.794605272829795,12.794605272829795,21.96217188156966,15.850460809076417,2884.9841982496796,3.0540428815477614
CI4,mp-27962,6.819910734039853,6.819910734039853,6.819910734039853,6.819910734039854,219.79398968328906,3.925783222986315
Ca(BiO2)2,mp-558751,10.19674130701683,10.19674130701683,12.414665427647138,10.936049347226932,985.1659924960493,7.039315956824002
Ca(GdS2)2,mp-36358,7.308414161851667,7.308414161851667,7.308414161851667,7.308414161851668,300.5017566265973,5.336217470670494
Ca(LaS2)2,mp-35421,7.536238185512547,7.536242482040384,7.536197478045306,7.536226048532746,329.4791705502156,4.497083947097454
Ca(NdS2)2,mp-35876,7.430144774072841,7.430143149946622,7.430141142101266,7.430143022040244,315.7603437017953,4.804724802293355
Ca(PrS2)2,mp-34185,7.47326378996347,7.47326378996347,7.47326378996347,7.473263789963471,321.28573521660104,4.653161087932957
Ca(SmS2)2,mp-36100,7.362486396528677,7.362486396528677,7.362486396528677,7.362486396528677,307.2174140991553,5.070605361256469
Ca10Ge16(B2O17)3,mp-1019569,4.783341,15.288534,26.686804,15.586226333333334,1951.613222310036,4.158731164997908
Ca2Bi2O5,mp-28848,10.236075,10.283653650132964,10.662957232189624,10.394228627440862,928.6532929159865,6.202404431213878
Ca2CdAs2,mp-1095180,4.31662754,7.18909905,8.510828549406838,6.672185046468947,255.47983892331854,4.451118462408131
Ca2Ge,mp-1009755,5.082266816858479,5.082266816858479,5.082266816858479,5.082266816858479,92.82338181597505,2.733403182004593
Ca2ScSbO6,mp-1189528,5.696601,5.550629,9.683960174243282,6.977063391414428,250.99912946005279,4.536639055282545
Ca2Si,mp-1009733,5.070284878309137,5.070284878309137,5.070284878309137,5.070284878309137,92.16840794612506,1.9501176529212305
Ca2Sn,mp-22735,5.0667945,7.94400692,9.56025906,7.523686826666666,384.80664678482026,3.4326305408454516
Ca2SnS4,mp-866503,6.56253781,8.22000785,13.97510648,9.585884046666667,753.8747135589316,2.882205718964618
Ca3(BN2)2,mp-1227905,6.286471502882909,6.286471502882909,20.95566923,11.176204078588606,784.1174068497802,2.5143590778961924
Ca3N2,mp-844,9.902073712575996,9.902074153888021,9.90207309,9.902073652154671,747.4059775130344,2.6349331595232925
Ca3Sb2,mp-1013546,5.77419811,5.77419811,5.77419811,5.77419811,192.51963991689334,3.1374862735706466
Ca3Ti2(SiO4)3,mp-1154470,10.62958887784697,10.62958887784697,10.62958887784697,10.62958887784697,924.5438456002663,3.5362132787794605
Ca4Bi6O13,mp-757343,9.446234296546798,9.446234296546798,9.304547155440988,9.399005249511527,771.3995751825864,6.983940124616845
Ca5B3O9F,mp-6632,9.007061734584411,9.007061734584411,3.536294643747984,7.1834727043056015,227.3889049056894,2.8905013495345138
CaF2,mp-2741,3.9004376588845773,3.900437628174305,3.900438,3.900437762352961,41.95899220581091,3.0898326992343006
CaI2,mp-30031,4.52896507,4.528965999992656,7.20982996,5.422587009997552,128.07184962611453,3.810445046731192
CaMg2N2,mp-5795,3.53665757,3.53665801178607,6.05850889,4.37727482392869,65.62697637431359,2.9528593961363976
CaO,mp-2605,3.399141033706305,3.399141301541578,3.39914011,3.3991408150826277,27.771067003632275,3.3530837486789946
CaS,mp-1672,4.033866116246554,4.033866704326284,4.03386744,4.03386675352428,46.414057530527266,2.5810342007468723
CaSe,mp-1415,4.200550113224342,4.200550828397739,4.20055129,4.200550743874026,52.40874882176445,3.7716460296003667
CaSnO3,mp-4438,5.52398931,5.6962779,7.90708393,6.375783713333333,248.80571219239832,5.520396786842774
CaTaNO2,mp-556340,5.596744,5.715008,7.857876,6.389876,251.33759566123985,7.056899503339866
CaTe,mp-1519,4.519620733579659,4.519621404809907,4.51962073,4.519620956129855,65.28162287945732,4.265149322704297
CaZnSO,mp-7204,3.7789202434665117,3.7789202434665117,11.515094,6.357644828977674,142.4077262992574,3.5809587731961825
Cd(GaS2)2,mp-4452,5.591164849618755,5.59116359148018,6.465953318291563,5.8827605864635,159.94575929459765,3.9463323764415152
Cd(GaSe2)2,mp-3772,5.802257494570335,5.802257838264669,6.800044812717724,6.13485338185091,182.5673813806625,5.163480131897585
Cd(InS2)2,mp-559200,7.725932624819145,7.725932624819145,7.725932624819145,7.725932624819145,326.0902033892593,4.789859607424008
Cd(InSe2)2,mp-22304,5.941377320125192,5.941378558776914,7.194003319182743,6.35891973269495,206.14609910517117,5.299382669137637
Cd(InTe2)2,mp-21374,6.361499824131317,6.361499826409272,7.743383975877477,6.822127875472689,255.0671715530382,5.5496030205973765
Cd2InCuTe4,mp-1227025,6.461354,6.461354,7.899741880777752,6.940816626925918,269.05137805003676,5.638496463737478
Cd4As2Br3,mp-1203526,12.75531791,12.75531791,12.75531791,12.75531791,2075.2664350998953,5.371929243166843
Cd4As2I3,mp-27528,13.308552,13.308552,13.308552,13.308552,2357.178208619955,5.524101317610905
Cd4P2Br3,mp-28914,12.49622421,12.49622421,12.49622421,12.49622421,1951.3556330057995,5.114675485593733
Cd4P2Cl3,mp-29746,12.24512293,12.24512293,12.24512293,12.24512293,1836.0709030619535,4.470986320263327
Cd4P2I3,mp-568545,12.823556,12.927722,13.219548,12.990275333333335,2191.528299722998,5.408854459836882
Cd4Sb2I3,mp-29044,13.69201328,13.69201328,13.69201328,13.69201328,2566.8585387344656,5.557658484517503
CdAg2GeS4,mp-1197203,6.61772694,7.99495475,13.79879972,9.470493803333333,730.0727936502728,4.813239903877238
CdAs2,mp-471,4.725634704835396,6.155370085189252,6.155369518336994,5.678791436120547,152.66478634811008,5.705092246838502
CdBiClO2,mp-550553,4.246513,6.291251,7.660676998345316,6.0661469994484385,202.587553572604,6.374422445951032
CdBr2,mp-568722,13.429333074153917,13.429333074153917,13.42933374221136,13.429333296839731,184.9834976481843,4.887249834906797
CdCl2,mp-22881,6.499190628794043,6.499190866909979,6.499190133883094,6.499190543195706,78.67112972818981,3.8693360718682586
CdCu2GeS4,mp-13982,6.29298567,6.53286496,7.70267704,6.8428425566666675,316.66649334072304,4.618779706263253
CdF2,mp-241,3.8191093774786213,3.819110736075878,3.81911039,3.8191101678515,39.38870067731385,6.340854969929461
CdGeAs2,mp-4953,5.977749437502048,5.977748813521402,7.067601701389239,6.341033317470896,202.40505823068398,5.494970403792506
CdGeP2,mp-3668,5.7552683530022435,5.755267411585419,6.784661663064508,6.098399142550723,179.81329023906636,4.561961999018335
CdHg4(AsI2)2,mp-570838,13.428126,8.223313,8.315483472547461,9.98897415751582,817.1130597903378,6.390187402638422
CdHg6(As2Br3)2,mp-567910,12.70259,12.70259,12.70259,12.70259,2049.636478895984,6.7893625771133435
CdI2,mp-570437,4.28513318,4.285132706346268,21.48415297,10.018139618782088,341.64690200717655,5.339921249967611
CdIClO3,mp-1191962,9.026253436274489,9.026253436274489,7.448362,8.500289624182992,453.8556582658537,4.723675073077428
CdP2,mp-913,5.3155021,5.3155021,19.84646626,10.15915682,560.7532228378684,4.130574789836572
CdP4,mp-7904,5.17206495,5.289311944438992,7.650472803197954,6.037283232545648,206.57294924246142,3.7990978568765787
CdS,mp-672,4.16883814,4.16883805902189,6.77961741,5.039097869673963,102.03892478274858,4.702284793707707
CdSb,mp-1321,8.33310615,8.64824985,6.54114516,7.840833719999999,471.39929543536505,6.599078064478864
CdSb2Se3Br2,mp-567556,11.065205425606612,11.065205425606612,12.773380688919673,11.6345971800443,488.67870372066494,5.114825926524518
CdSe,mp-1070,4.34608591,4.346084856348898,7.08983988,5.2606702154496325,115.97478237665474,5.480139995990648
CdSiAs2,mp-3078,5.914546814350749,5.914546566436613,6.902819498747517,6.243970959844961,192.1074097836465,5.019279734997139
CdSiP2,mp-4666,5.6872275571836095,5.687227410132427,6.612082805943362,5.995512591086467,169.76227734194765,3.9604347433979967
CdSnAs2,mp-3829,6.146089893934506,6.146090396424607,7.4257402748017,6.572640188386938,227.44602229194646,5.5626907052611525
CdSnO3,mp-754329,5.933372170789357,5.93337229253381,5.933373282982338,5.933372582101835,131.04061486299892,7.073964607426622
CdSnP2,mp-5213,5.93104729807405,5.931046902262552,7.164859432213996,6.342317877516867,204.35131321889773,4.76289313366444
CdTe,mp-406,4.641608438605873,4.641609170455944,4.64161015,4.641609253020606,70.71162283069633,5.636239502916919
CdTeO3,mp-28290,11.30735991,7.451632651827147,7.831885008582168,8.863625856803106,604.9274931616135,6.3247319197303185
Ce10Se14O,mp-1198305,15.205661716706729,15.205661716706729,15.205661716706729,15.205661716706729,2563.976631313736,6.5349657277264885
CeBiW2O9,mp-1204806,7.225420704821346,7.225420704821346,13.896239473312772,9.449026960985154,706.8481008639984,8.08854898895095
CeMoO4F,mp-1192442,6.621644,7.044581,10.148423987474114,7.938216329158038,426.5849798303299,4.967810313446201
CeO2,mp-20194,3.86607151081715,3.8660715767782934,3.866071,3.8660713625318146,40.85964149792201,6.994759103664203
CeTl2P2S7,mp-638100,6.78721845,9.398713508619522,19.94837810621908,12.044770021612868,1261.4639118551265,4.398139549191063
Co2Te3O8,mp-18855,6.853753263991089,6.853753263991089,11.552535963660693,8.420014163880957,374.2818961219498,5.578240041435182
CoAsSe,mp-505511,5.73336531,5.81912792,11.46488735,7.672460193333333,382.505170858071,7.3910066157844465
CoP2,mp-14285,5.5196042,5.514386001530318,5.582605913588771,5.538865371706364,154.83268856077132,5.185653188975327
CoPS,mp-1226003,5.40164128,5.40164128,5.40164128,5.40164128,157.60762281838188,5.140340194371183
CoSb3,mp-1317,7.840249595076167,7.840336474786661,7.840292760044808,7.840292943302546,371.00088993935856,7.5948344272688315
CoSbS,mp-5881,5.82273515,5.94471784,11.62631546,7.7979228166666665,402.4393002273977,7.023037647410139
CrB2(PbO2)6,mp-1197022,6.573271,11.949389,18.609456,12.377372000000001,1461.7089789609408,6.856192250643224
CrO3,mp-510421,4.716873712301224,4.8810800542884545,5.70504865,5.101000805529893,115.10670088636584,2.885052569636943
CrPbO4,mp-19146,7.43348116,6.8069060314884595,8.717189942251002,7.652525711246487,351.5830524611216,6.105820643767765
Cs2AgBiBr6,mp-1078250,8.12345200587829,8.12345200587829,8.12345200587829,8.12345200587829,379.059040582874,4.652655552917027
Cs2AgBiCl6,mp-1078258,7.641894638504992,7.641894638504992,7.641894638504992,7.641894638504991,315.56449890628505,4.185373900842128
Cs2Al2B2O7,mp-1019602,7.229786,6.804857,9.74717787654319,7.927273625514396,433.810303836327,3.470986088472002
Cs2Ba3(P2O7)2,mp-1019605,9.129522,9.789932,19.050963,12.656805666666665,1702.7255322919896,4.001065991522453
Cs2Cd3(B4O7)4,mp-1201213,11.621921057575637,11.621921057575637,13.598449487367375,12.280763867506217,1160.6363711254778,3.5023975158190495
Cs2Cd3Te4,mp-567386,6.80774037998753,10.82520503315062,10.825204897847305,9.48605010366182,709.9476291487297,5.208601380765159
Cs2Cu2Sb2S5,mp-1190579,7.515281,8.746306800623964,10.003768687820257,8.755118829481406,643.5278516798027,4.111806558295951
Cs2Hg3I8,mp-540574,7.493931204909212,7.890024770166427,11.79150914978695,9.058488374954196,624.3278026401472,5.007770937421215
Cs2Hg3S4,mp-1105419,6.345359,9.89419761369388,9.89419761369388,8.711251409129252,544.9709941677509,6.068699958622522
Cs2Hg6S7,mp-17905,14.16469878,14.16469878,4.22042213,10.849939896666667,846.7799738595783,6.643120908204285
Cs2Li3(BO2)5,mp-966802,6.9088297471062345,6.9088297471062345,13.074386,8.96401516473749,563.3324409093786,2.9517331556354462
Cs2MgGe3Se8,mp-1195667,7.854139,13.29571152,18.1309919,13.09361414,1893.353603018135,3.9982870184806147
Cs2MgSn3Se8,mp-1195633,8.202843,13.778704,18.858094,13.613213666666667,2131.4275062781826,3.9823937360843185
Cs2NbCuSe4,mp-15223,15.032506194153589,13.35981599693188,8.029814314706226,12.140712168597233,568.608805807312,4.31104592618986
Cs2PdSe8,mp-31285,12.616153364250373,12.616098897919347,12.616002095259491,12.616084785809738,1524.9869794973233,4.372583628733966
Cs2Sb,mp-1191118,6.44204108,11.28236038,16.34290767,11.355769709999999,1187.825884244079,4.334484610070179
Cs2SiB4O9,mp-1226151,6.9325394203261475,6.9325394203261475,6.764294194993148,6.876457678548481,234.8002430650444,3.4026518017586374
Cs2Sn3(SbS5)2,mp-1195304,13.794911,7.194437,12.300877088663109,11.096741696221036,1049.1490013489135,3.7546306397809994
Cs2Te,mp-573763,5.82121553,9.44850141,11.65246224,8.974059726666667,640.9059681586167,4.077192021558062
Cs2TeBr6,mp-23405,7.834677298503789,7.834678305185239,7.83467693,7.834677511229676,340.0543915722945,4.26219008597576
Cs2TeI6,mp-540957,8.389574122855349,8.38957367066857,8.38957342,8.389573737841305,417.5463241832438,4.5926716268055126
Cs2Th(PS3)3,mp-640389,12.555538,12.617565613226823,12.775939480598911,12.649681031275245,1727.2985846132967,3.381473842959487
Cs2Ti(AgS2)2,mp-10488,6.109721,6.109721,14.004816,8.741419333333333,522.7814447441749,4.178013146940504
Cs2VAgS4,mp-8684,14.3575777956803,12.764478172806438,7.776336030905043,11.632797333130592,525.5225312412632,3.4939694768436604
Cs2ZnGe3Se8,mp-1194749,7.80076757,13.77594666,18.02940071,13.202038313333333,1937.4927303872714,4.0481134202487015
Cs2ZnSn3Se8,mp-1194701,8.030131,13.656237,18.797053,13.494473666666666,2061.3106229849727,4.2503068889283195
Cs3Bi,mp-635413,6.641986964031036,6.641986934316708,6.64198667,6.641986856115913,207.19487266897139,4.870314552127646
Cs3Bi2Br9,mp-27544,8.01402722,8.014027567154962,9.94480076,8.65761851571832,553.1314722726557,4.610617677493076
Cs3Bi2I9,mp-669458,8.52312680863695,8.52312680863695,21.69991441611146,12.915389344461786,1362.8720035122276,4.773291673624063
Cs3Li4(BO2)7,mp-1019615,7.028950639186833,7.028950639186833,27.182766,13.746889092791221,1163.0683533975548,3.1102179994535932
Cs3Nb2AsSe11,mp-683903,10.620760908425064,10.620760908425064,10.435209266776253,10.558910361208794,1163.4542997535273,4.361703743998877
Cs3Nb9(TeO8)4,mp-1201443,19.677018494613073,19.677018494613073,7.535321,15.629785996408714,1550.4118043899539,4.835179138340342
Cs3Sb,mp-10378,6.537599270933274,6.537598355805057,6.53759826,6.537598628912778,197.57853540566006,4.374317888868654
Cs3Sb2Br9,mp-579560,7.98547137,7.985470629592697,9.79265017,8.587864056530899,540.7941077469031,4.180171248994283