,material_id,composition,band_gap
1787,2742,Lu2CrS4,1.75
1788,218,Ba2GaErTe5,1.15
1790,1038,CsGaS3,3.0
1791,1567,Ga0.6Al0.4P,2.35
1792,241,Ba2InSmSe5,2.22
1793,4763,YbSb,1.0
1794,3100,NaYTe4O10,3.9
1795,3598,Rb3Al3Ge7Se20,2.4
1797,3887,Sm2ZrSe5,1.41
1798,4724,YbB66,1.27
1799,308,Ba4AgInSe6,2.41
1800,1582,Ga0.99Al0.01P,2.27
1801,922,CrTe2,0.17
1802,3768,SbTeI,1.265
1803,3580,Rb2Hg3Sn2S8,2.48
1804,3308,Pb0.92Sn0.08Se,0.059
1806,4806,Zn0.9S0.9Ga0.1P0.1,2.8
1807,2158,K4GeP4Se12,2.0
1808,3393,PbBiO2Br,2.385
1809,268,Ba3BSbSe6,1.89
1810,3380,Pb3Cl4TeO3,3.79
1811,2311,La2V2IO9,3.63
1812,3387,Pb6B2MoO12,2.9
1813,2432,Li2FeSnS4,1.86
1814,2159,K4GeS4,0.8
1815,1623,GaAs0.1P0.9,1.22
1817,2253,KScSe2O6,5.4
1818,1128,Cu0.5Ga1.5S2.5,2.4450000000000003
1819,2630,LiCdBO3,4.28
1820,448,BeO,10.39
1821,1110,Cu0.01Ga1.99Se2.99,1.99
1822,2065,K10Sn3P8Se24,1.82
1823,1705,Ge0.542Si0.458,2.238
1824,3559,Rb2AgPS4,2.6
1825,16,Ag2GeSe3,0.905
1826,3415,PbSbO2I,2.48
1827,2531,Li4.5Cr0.5TeO6,1.79
1828,2675,LiInSnS4,2.3
1829,1928,HoN,1.856666666666667
1830,950,Cs2MgGe3Se8,2.04
1831,3355,Pb0.9Se0.9Bi0.2Te0.3,0.25
1832,493,Bi2Te0.03Se2.97,0.27
1833,3963,Sn2BiSI5,1.32
1834,1849,Hg4As2HfCl6,2.47
1836,3153,Nd2Te3,1.12
1837,3997,SnSe,0.9916666666666668
1838,4367,Tl2TeS3,1.6
1839,2074,K2Al2B2O7,6.89
1840,149,AlSb,1.6518000000000002
1841,2099,K2Gd2Sb2Se9,1.33
1842,4805,Zn0.9Hg0.1Se,1.75
1843,1604,Ga1.1Sb0.9Se0.3,0.67
1844,1176,Cu2ZnSnTe4,1.39
1846,1511,Fe2O3,2.2
1847,1711,Ge0.88Si0.12,0.84
1848,108,Al0.74Gd3Si0.7S7,2.34
1849,391,BaIr2Ge4S6,1.539
1850,1039,CsGaSn2Se6,1.87
1851,4848,ZnIn2Te4,1.8733333333333333
1852,479,Bi2Cu0.96Se3I,0.68
1853,3835,Se2B2O7,4.64
1854,18,Ag2HgI4,2.47
1855,2164,K4P8Te4,1.4
1856,238,Ba2InNdSe5,2.2
1857,432,BaZn2As2,0.23
1858,2106,K2Hg3Sn2S8,2.45
1859,2231,KInSnS4,2.3
1860,2229,KInS2,3.0
1861,2955,Na0.5Pb1.75GeS4,2.08
1862,3607,Rb3Sb,1.0
1863,3409,PbN6,3.0
1865,688,Cd4Sb2I3,1.83
1866,1845,Hg3Te2UCl6,2.6
1867,687,Cd4P2I3,2.17
1868,412,BaSe,3.626666666666667
1869,3757,Sb5O7I,1.95
1871,550,CI4,2.26
1872,4382,Tl6CuTe2O10,2.3
1873,3420,PbSe0.99S0.01,0.255
1874,4414,TlInSe2,1.2063636363636363
1875,2247,KSb,0.9
1876,734,CdSc,1.714
1877,2698,LiMoIO6,2.8
1879,2035,InSb0.6As0.4,0.13
1880,494,Bi2Te0.1Se2.9,0.78
1881,2870,Mn1.95GdIn1.05S5,1.66
1882,3340,Pb0.999TeIn0.001,0.3
1883,2398,LaVI5O16,3.58
1884,602,Ca6Bi6O15,3.34
1886,2289,La2GeSe5,1.24
1887,4788,Zn0.43Cd0.57Se,2.8499999999999996
1888,587,Ca3Sb2,1.4
1889,1564,Ga0.5In0.5As,0.75
1890,2130,K2Te,1.9
1891,1234,CuGa0.4In1.6S3.5,1.55
1892,1577,Ga0.8Sb0.8Cd0.2Te0.2,0.8
1893,1082,CsSbSe2,1.7
1894,772,Ce3LuSe6,1.1
1895,26,Ag2SnSe3,0.7833333333333333
1896,3647,RbCd4Ga5Te12,1.64
1897,2126,K2Sm2Ti3O10,3.26
1898,236,Ba2InGdSe5,2.24
1899,3351,Pb0.99TeTl0.01,0.59
1900,3878,Sm2S3,2.98
1901,1960,In0.4P0.4Ga0.6As0.6,1.74
1902,4767,YbSe,1.5
1903,2028,InSb,0.2206315789473684
1904,3740,RuPAs,0.8
1905,995,Cs4Th2P6S18,2.8
1906,4661,YN,1.9
1907,1826,Hg0.8Cd0.2Se,1.1166666666666667
1908,366,BaClBF4,6.89
1909,4086,SrS,4.779999999999999
1911,28,Ag2VI3O11,2.16
1913,157,As2S6,2.35
1914,2904,MnAl3,0.58
1915,2926,MnO,3.6
1916,1982,In0.9Al0.1P,1.5
1917,3571,Rb2Cu2Sn2S6,1.44
1918,505,Bi2Te2.97Se0.03,0.1525
1919,2811,Mg3As2,2.4499999999999997
1920,280,Ba3Gd2P4S16,3.41
1921,932,Cs2Bi2Cd2S5,1.7
1922,1365,Er3Te4,0.9
1923,2208,KCu2SbS3,1.615
1924,2020,InN,2.13
1925,3090,NaSbS2,1.64
1926,2969,Na2CdGe2S6,2.8899999999999997
1927,1279,CuZn2InTe4,1.05
1928,3912,SmB66,0.8
1929,3615,Rb4Ge3B6O17,5.42
1930,2244,KPbPO4,4.44
1932,4231,TeO2,3.0
1933,337,Ba6Al4B14O33,3.44
1934,3322,Pb0.95Se0.95Sn0.05Se0.05,0.205
1935,541,BiSI,1.5933333333333335
1936,4431,TlScTe2,0.85
1937,1357,Er2Mo3O12,1.0
1938,2317,La3CuGaSe7,1.36
1939,899,Cr3Se4,1.59
1940,4329,TiO2,3.3
1941,4766,YbSb4Te7,0.22
1942,707,CdGeP2,1.7266666666666666
1943,3,Ag0.4Cd0.2In2.4Te4,0.42
1944,2189,KAu5PS8,2.14
1946,1193,Cu3ScSe3,0.3
1947,1634,GaAs0.86Sb0.14,0.66
1948,1280,CuZr1.86S4,1.26
1949,4363,Tl2SeAs2Te3,0.67
1950,1528,FeAsSe,0.6
1951,25,Ag2SnS3,1.3533333333333335
1952,4604,WSe2,1.465
1953,2480,Li2WTeO6,4.0
1954,1808,Hg0.08Zn0.92Te,1.9
1955,1536,FePS,0.25
1956,752,Ce2Ge2Se7,1.1
1957,703,CdF2,6.0
1958,1889,Ho2HfS5,1.0
1959,4682,YVTeO10,2.2
1960,3065,NaGaGe3Se8,2.35
1961,3370,Pb2MnO4,1.5
1962,4791,Zn0.55S0.55Ga0.45P0.45,2.3499999999999996
1963,1188,Cu3NbSe4,2.45
1964,1855,Hg6.5As4CdCl6,1.955
1965,678,Cd3MoTe2O10,3.81
1967,3674,RbMn4In5Se12,1.76
1968,3982,SnI2,2.4
1969,3255,NiS2,0.64
1971,544,BiSeBr,1.6666666666666667
1972,1640,GaBi,0.1
1974,694,Cd8B5O15F,3.14
1975,4709,Yb4Sb2S11.25,1.71
1976,2188,KAsSe2,1.625
1977,1484,EuSb2Se4,0.95
1978,1222,CuBS2,3.61
1979,3569,Rb2CsSb,1.5
1980,2098,K2FeGe3Se8,1.95
1981,4166,Tb4Al2O9,4.59
1982,359,BaAuI5O15,2.32
1983,4823,Zn3P2,1.1749999999999998
1984,2337,La4InSbS9,2.07
1985,943,Cs2Ga2Se5,1.95